% Model:              Untitled.mph
% Version:            COMSOL 5.6.0.280
% Date:               Oct 5 2021, 10:18
% Dimension:          1
% Nodes:              994
% Expressions:        1
% Description:        线图
% cln2x                   Height
21.91                     0.21981696082150132
21.920000000000027        0.2200916698414326
21.94000000000003         0.22243378020333882
21.96000000000003         0.22727513207357
21.980000000000036        0.23485852423208886
22.00000000000004         0.2455731247717002
22.020000000000042        0.2599842479292345
22.040000000000045        0.27887146076807
22.060000000000045        0.3032616242249185
22.080000000000048        0.33440091530551086
22.100000000000048        0.3734620563184791
22.12000000000006         0.42045544000584534
22.140000000000054        0.47094347306905393
22.16000000000005         0.5157718596114417
22.180000000000042        0.548244778413054
22.20000000000005         0.5655781280378521
22.22000000000005         0.5706399739150863
22.240000000000055        0.5656213187594882
22.260000000000062        0.5483893409767883
22.280000000000076        0.5160209210277378
22.300000000000065        0.47109190693964875
22.320000000000068        0.42052730478646594
22.340000000000067        0.3736298514566264
22.360000000000074        0.33457573968545073
22.38000000000007         0.3034424893738046
22.40000000000007         0.2790569691011422
22.420000000000076        0.260172924258986
22.440000000000087        0.24576543212983878
22.46000000000009         0.2350529519423412
22.480000000000093        0.2274690391946421
22.500000000000092        0.22262363601609536
22.520000000000092        0.2202730279013947
22.54000000000009         0.22030036608030237
22.560000000000088        0.222706227942339
22.58000000000009         0.22760864799748176
22.6000000000001          0.23525260864044764
22.620000000000104        0.24602952230887756
22.640000000000107        0.2605071417901437
22.6600000000001          0.2794669977761969
22.680000000000106        0.30394752730087965
22.700000000000113        0.33520350868531007
22.720000000000105        0.3744167827861258
22.74000000000011         0.42147778617032733
22.76000000000011         0.4721027033183039
22.78000000000011         0.5170512365503844
22.800000000000107        0.5496109781937581
22.820000000000107        0.566991238269982
22.840000000000114        0.5720673385408599
22.860000000000113        0.5670362282940783
22.880000000000116        0.5497605434145764
22.900000000000134        0.5173110279915685
22.920000000000126        0.47227055040403276
22.940000000000126        0.4216687033086395
22.96000000000013         0.37463389892840504
22.98000000000013         0.3354472012101234
23.00000000000013         0.304219614483757
23.020000000000127        0.2797698806780568
23.040000000000138        0.26084117248112776
23.060000000000144        0.24640003951571446
23.080000000000144        0.23566301267589654
23.100000000000147        0.22806225759480714
23.12000000000015         0.22320677062740532
23.14000000000015         0.22085226010069034
23.160000000000156        0.2208816203446181
23.180000000000152        0.22329546963585817
23.200000000000156        0.22821218307042676
23.220000000000166        0.23587590149883256
23.24000000000016         0.24668150820450405
23.26000000000016         0.2611977237298853
23.28000000000016         0.28021028723466646
23.30000000000017         0.304755529025255
23.320000000000174        0.33609384219901306
23.340000000000163        0.37541020664278957
23.36000000000017         0.42259498400936996
23.380000000000173        0.47335382883372384
23.400000000000166        0.5184228818425017
23.42000000000017         0.5510711445776252
23.44000000000017         0.5685000175331375
23.460000000000164        0.5735912751950513
23.48000000000017         0.5685466190543194
23.500000000000178        0.5511633075143395
23.520000000000184        0.5185574700779487
23.54000000000019         0.47352531067029746
23.56000000000019         0.42279727017261043
23.58000000000019         0.37564069094060804
23.60000000000019         0.3363530572818676
23.6200000000002          0.30504547626320877
23.640000000000196        0.2805335394441578
23.6600000000002          0.26155711441693047
23.680000000000213        0.24708005223516374
23.70000000000021         0.23631682843694402
23.72000000000021         0.22869811791048322
23.74000000000021         0.22383190283407264
23.760000000000208        0.22147343904359346
23.780000000000207        0.22150469511228324
23.80000000000021         0.22392679215100367
23.820000000000213        0.2288584166422214
23.84000000000023         0.2365459095116167
23.860000000000216        0.24738293675214887
23.880000000000223        0.2619407951857683
23.900000000000222        0.28100745721996334
23.920000000000222        0.30562219680620556
23.940000000000232        0.3370489938362471
23.960000000000235        0.3764762386911526
23.98000000000023         0.423794183396752
24.000000000000234        0.47469690101696
24.020000000000227        0.519894931772954
24.040000000000223        0.552699987939624
24.060000000000223        0.5701189584501362
24.08000000000023         0.5752255833591402
24.100000000000225        0.5701672265991738
24.120000000000232        0.5527345912369279
24.14000000000024         0.5200365917733623
24.160000000000245        0.474877749984436
24.180000000000245        0.4240082450760553
24.200000000000255        0.37672098986635766
24.22000000000026         0.3373250015272367
24.240000000000254        0.3059315168595315
24.26000000000026         0.2813527486810154
24.280000000000264        0.2623250112724101
24.300000000000278        0.24781137835755843
24.320000000000267        0.23701930758450632
24.340000000000266        0.2293806196560325
24.36000000000027         0.2245022811708161
24.380000000000273        0.22213868696314398
24.400000000000272        0.22217210229701975
24.42000000000027         0.2246031729423085
24.440000000000264        0.22955097280991454
24.46000000000029         0.2372626049494189
24.48000000000028         0.2481329330665889
24.50000000000028         0.2627349799811475
24.520000000000284        0.2818590915761012
24.540000000000287        0.30654766952084705
24.56000000000029         0.33806850362472823
24.58000000000029         0.37754966460246553
24.60000000000029         0.42498581677948355
24.620000000000292        0.4761347878923672
24.640000000000292        0.5215979865478995
24.660000000000288        0.554371446290246
24.680000000000287        0.5718458547475489
24.700000000000294        0.5769699060953835
24.720000000000294        0.571897003442061
24.74000000000029         0.5544116151901045
24.760000000000296        0.521615130584183
24.780000000000307        0.47632099501327996
24.80000000000031         0.425300539509158
24.82000000000031         0.3778738865346634
24.840000000000312        0.33836229427953796
24.860000000000316        0.3068710895500908
24.88000000000032         0.28222781773164535
24.90000000000032         0.2631467786141749
24.92000000000032         0.2485894251006579
24.94000000000033         0.23776707258713084
24.960000000000328        0.2301075213331894
24.98000000000033         0.2252165669726019
25.000000000000327        0.22284788557279434
25.020000000000344        0.22288341932059932
25.040000000000333        0.2253238566268983
25.060000000000336        0.23028868104266711
25.080000000000336        0.23802580428850906
25.100000000000342        0.24893136255040946
25.120000000000342        0.26358254696608363
25.14000000000034         0.2827660412379711
25.16000000000034         0.30752609794071795
25.18000000000035         0.3391271192444396
25.200000000000347        0.37875894647428726
25.220000000000343        0.42634545170433974
25.240000000000343        0.47765739344041125
25.260000000000346        0.5232671208576675
25.280000000000342        0.5561476447780299
25.300000000000338        0.5736806164682196
25.320000000000338        0.57882294277802
25.340000000000334        0.5737344516522865
25.36000000000034         0.5561929524457547
25.380000000000347        0.5232918129261199
25.40000000000035         0.47785963328208403
25.420000000000368        0.42658538374191746
25.440000000000364        0.37903415368016996
25.46000000000037         0.3394382544002435
25.480000000000373        0.3078753485515131
25.500000000000377        0.2831562664763809
25.520000000000376        0.2640169501330856
25.54000000000038         0.2494155569715992
25.56000000000039         0.23856092727162143
25.580000000000382        0.23087908280602532
25.60000000000038         0.22597458231179876
25.62000000000039         0.22360033135689403
25.640000000000384        0.22363792065020593
25.660000000000387        0.2260880756194676
25.680000000000398        0.2310716673694597
25.700000000000394        0.23883609155520638
25.7200000000004          0.2497792539077133
25.740000000000396        0.2644775163365476
25.7600000000004          0.28372503703264235
25.780000000000403        0.30856742220981276
25.800000000000406        0.34027328735280193
25.82000000000041         0.38003648312875293
25.840000000000412        0.42778096169293456
25.860000000000404        0.4792646284308679
25.880000000000397        0.5250297906275592
25.900000000000404        0.5580244910073903
25.920000000000393        0.5756205437932234
25.940000000000385        0.5807828647799747
25.9600000000004          0.5756788806741866
25.9800000000004          0.5581403185830094
26.00000000000041         0.5251994018854476
26.020000000000408        0.4794810017434286
26.040000000000422        0.42803693751604766
26.06000000000042         0.3803292711486883
26.08000000000043         0.34060368587731565
26.100000000000428        0.30893788774567615
26.120000000000427        0.2841386890561911
26.140000000000434        0.26493779170886606
26.160000000000434        0.2502898636724909
26.180000000000454        0.23940111058866775
26.200000000000443        0.23169567429216495
26.220000000000443        0.22677630394601406
26.240000000000443        0.22439650737979003
26.260000000000446        0.22443658764631
26.280000000000445        0.2268973734126696
26.30000000000045         0.2318992849969613
26.320000000000448        0.23969201069741386
26.34000000000046         0.25067436243927943
26.360000000000458        0.26542475494359924
26.380000000000457        0.28474017051104805
26.400000000000457        0.30966993544309857
26.420000000000456        0.3414871896438803
26.440000000000456        0.3813900842982065
26.460000000000463        0.4293025389192191
26.48000000000046         0.48096813469595295
26.50000000000046         0.5267623024003203
26.520000000000454        0.559947016104128
26.540000000000457        0.5776698471819968
26.560000000000457        0.5828521183923484
26.580000000000457        0.5777289431601653
26.60000000000045         0.5601255422804952
26.62000000000046         0.5270660044033291
26.640000000000462        0.4811856279774319
26.660000000000476        0.42956311200299074
26.680000000000483        0.3816917918646828
26.70000000000048         0.34183055291536657
26.720000000000482        0.3100570061901085
26.740000000000485        0.28517380891165284
26.76000000000049         0.2659059184070444
26.78000000000049         0.2512093120273055
26.8000000000005          0.2402852559988705
26.8200000000005          0.23255548901555528
26.840000000000497        0.22762187062012706
26.860000000000497        0.22523570138829194
26.880000000000507        0.22527786812338765
26.900000000000503        0.22774923671100472
26.920000000000503        0.23277069848897872
26.940000000000506        0.2405928827554668
26.96000000000051         0.25161608633353244
26.980000000000512        0.2664208668950995
27.000000000000522        0.2858071539616686
27.02000000000051         0.3108281528074866
27.040000000000518        0.34278764760419034
27.060000000000517        0.3828752462718002
27.080000000000517        0.4309869142948137
27.100000000000517        0.4827488511218511
27.12000000000051         0.5287198718375782
27.140000000000505        0.562030471597085
27.160000000000508        0.5798225674413154
27.180000000000504        0.5850268113813735
27.20000000000051         0.5798863246279194
27.220000000000514        0.5622188003394751
27.24000000000051         0.5290379488296855
27.260000000000524        0.4829892413472066
27.28000000000053         0.4311777017479993
27.30000000000054         0.3831316598498309
27.32000000000054         0.34315155440905454
27.340000000000543        0.31124327588639106
27.36000000000054         0.28626375203489773
27.380000000000543        0.26692798626120195
27.40000000000055         0.25217945530434627
27.420000000000545        0.24121726714503375
27.44000000000055         0.23346101132604777
27.46000000000056         0.2285110905692437
27.480000000000555        0.2261179256515977
27.500000000000558        0.2261619914063174
27.520000000000557        0.22864417753741906
27.540000000000564        0.23368585312038787
27.560000000000556        0.24153861979877292
27.58000000000057         0.25260217119723843
27.600000000000577        0.2674633697822743
27.62000000000057         0.28692504576554884
27.64000000000057         0.3120480873100764
27.660000000000572        0.34412279362137954
27.680000000000568        0.3843625847953489
27.70000000000057         0.4326573177831317
27.72000000000057         0.48461787191650446
27.740000000000563        0.530768308403995
27.76000000000056         0.5642110341214314
27.780000000000555        0.5820759647809298
27.80000000000057         0.5873029279097627
27.820000000000558        0.5821430541711334
27.840000000000565        0.5644063257662688
27.86000000000057         0.5309612705149717
27.880000000000575        0.48486524256436414
27.90000000000058         0.432951347268352
27.920000000000606        0.3847001210001353
27.940000000000598        0.3445047206098246
27.960000000000594        0.31247713604417415
27.980000000000597        0.2874047039927471
28.0000000000006          0.26799749660955186
28.020000000000607        0.2531949335622582
28.040000000000603        0.24219304811900005
28.060000000000606        0.2344092055677815
28.08000000000062         0.22944228623246893
28.10000000000061         0.22704178464595884
28.12000000000062         0.2270877657299746
28.14000000000062         0.22958063671907042
28.16000000000062         0.23464286070220436
28.180000000000618        0.24252686385216957
28.20000000000062         0.2536361777702244
28.22000000000062         0.26855634569596976
28.24000000000063         0.2880949476564805
28.260000000000627        0.3133171001719787
28.28000000000063         0.3455182440882794
28.30000000000063         0.38591669391959765
28.32000000000063         0.43440232156798253
28.340000000000625        0.4865700435132915
28.36000000000062         0.5329076674643576
28.380000000000614        0.5664882581689598
28.40000000000061         0.5844291821777373
28.42000000000062         0.5896798198379577
28.440000000000616        0.5844987258121024
28.46000000000063         0.5666262610900256
28.480000000000626        0.5331101779553243
28.500000000000632        0.48682963146531666
28.520000000000643        0.43471052804098037
28.540000000000646        0.38627011901321806
28.56000000000066         0.3459179189090537
28.58000000000066         0.31376596649305366
28.60000000000066         0.28859667837180275
28.62000000000066         0.26911498752639285
28.640000000000665        0.2542560902947986
28.660000000000668        0.24321281641651457
28.680000000000668        0.23540120146246377
28.700000000000678        0.23041611009893959
28.72000000000067         0.22800758833241416
28.74000000000067         0.22805520410237665
28.760000000000673        0.2305598844217225
28.78000000000068         0.23564397792703176
28.80000000000068         0.2435611364732257
28.820000000000675        0.2547165815484802
28.84000000000068         0.26969830533750033
28.860000000000685        0.2893172655021687
28.88000000000069         0.31464303608396893
28.900000000000684        0.3469764890783986
28.920000000000684        0.3875411144754645
28.940000000000683        0.43622669671864434
28.960000000000683        0.4886163088472383
28.980000000000675        0.5352786312483996
29.00000000000067         0.5689295250851196
29.02000000000066         0.5868847499643239
29.040000000000667        0.5921581047844455
29.060000000000674        0.5869551189061618
29.08000000000067         0.5690065388758365
29.100000000000676        0.535349785749413
29.120000000000687        0.488876886885845
29.140000000000693        0.43654398595031285
29.160000000000704        0.3879065443814124
29.180000000000714        0.34739108355027376
29.200000000000717        0.3151096765715361
29.220000000000713        0.28984041062150956
29.240000000000713        0.27028273708204464
29.26000000000072         0.25536495706534673
29.28000000000072         0.2442779550619886
29.30000000000072         0.23643479585612429
29.32000000000072         0.2314312001745573
29.340000000000735        0.22901463089196133
29.360000000000728        0.22906418151872823
29.380000000000724        0.23158082407839278
29.40000000000073         0.23668747130591988
29.42000000000074         0.24463888252034377
29.440000000000733        0.2558420225990205
29.46000000000074         0.2708874082729297
29.480000000000743        0.29058947694220993
29.50000000000075         0.3160161960050658
29.520000000000742        0.3484662708216016
29.54000000000074         0.3891631571885844
29.560000000000745        0.43803124485386996
29.580000000000744        0.4907350762767336
29.600000000000733        0.5376005707682118
29.620000000000726        0.5714004470576531
29.640000000000718        0.589437580353242
29.660000000000725        0.5947363467880913
29.680000000000728        0.5895110164262634
29.700000000000728        0.5714833922030298
29.720000000000734        0.5376803303188518
29.740000000000745        0.49100733985960493
29.760000000000748        0.4384520629971364
29.78000000000076         0.3895437956966798
29.80000000000078         0.34889808276629874
29.82000000000077         0.31650225763363443
29.840000000000767        0.29113439975467353
29.86000000000077         0.2714960942114936
29.880000000000777        0.2565172718274009
29.900000000000777        0.24538536763250066
29.92000000000078         0.2375109435719507
29.94000000000078         0.23248800252994686
29.960000000000793        0.2300629448728619
29.980000000000786        0.23011437048432262
30.00000000000079         0.232643286673865
30.02000000000078         0.2377731793245168
30.040000000000788        0.24576153019919947
30.06000000000079         0.2570146130730941
30.080000000000794        0.2721261261819656
30.100000000000797        0.291912729411533
30.1200000000008          0.3174496471364019
30.140000000000796        0.35004148180708
30.160000000000796        0.39091639544970913
30.180000000000792        0.43999891926464896
30.200000000000784        0.49293583938834185
30.220000000000784        0.5400117668852502
30.240000000000776        0.573965727032512
30.260000000000776        0.5920873072034121
30.280000000000776        0.5974120469768428
30.300000000000782        0.5921632690190672
30.32000000000079         0.5741182963563052
30.340000000000792        0.5402359191714785
30.3600000000008          0.49322333917516276
30.38000000000081         0.44034146886437997
30.400000000000816        0.3913110224820096
30.42000000000082         0.3504895070819632
30.440000000000833        0.31795427686143074
30.46000000000082         0.2924778560963153
30.480000000000828        0.27275599881933793
30.500000000000835        0.2577138817086974
30.520000000000838        0.24653536622811267
30.540000000000838        0.23862842487465355
30.560000000000834        0.23358527871854995
30.58000000000085         0.23115122339963706
30.600000000000847        0.23120450721132957
30.620000000000836        0.2337462128528329
30.640000000000843        0.23890029652759112
30.660000000000842        0.24692388957937064
30.68000000000085         0.2582275801389583
30.700000000000845        0.27340680257495836
30.72000000000085         0.293281962206265
30.740000000000858        0.318933223913982
30.760000000000858        0.35167121627887576
30.780000000000854        0.392729866593111
30.800000000000853        0.44203381688712984
30.82000000000085         0.4952112018891945
30.840000000000835        0.5425035830576924
30.860000000000838        0.5765507619865559
30.88000000000083         0.5948223551552627
30.90000000000083         0.6001734398610031
30.920000000000837        0.5948997776807429
30.94000000000084         0.576767503019323
30.960000000000846        0.5427271240335038
30.98000000000086         0.49549908137185805
31.000000000000867        0.4423799933656933
31.02000000000087         0.39313226751022967
31.040000000000877        0.352130963453902
31.06000000000089         0.31945316802518303
31.080000000000894        0.29386574269700044
31.10000000000088         0.274058497253404
31.12000000000089         0.2589517175213393
31.14000000000089         0.24772401437059308
31.160000000000895        0.2397844731112852
31.180000000000895        0.23472120890634396
31.20000000000089         0.23227841588778164
31.2200000000009          0.23233371128714514
31.240000000000904        0.2348882350721093
31.260000000000897        0.2400667158139841
31.280000000000904        0.24812749809488863
31.300000000000903        0.25948309470356057
31.320000000000917        0.27473172511166866
31.34000000000091         0.2946976296115222
31.360000000000923        0.32046602289183385
31.38000000000091         0.35335367410120316
31.4000000000009          0.3946003930387616
31.420000000000897        0.4442222434955278
31.440000000000904        0.49755036992225554
31.46000000000089         0.5449345090858798
31.48000000000091         0.5792846422003461
31.500000000000902        0.597647955709739
31.520000000000902        0.6030280103160874
31.5400000000009          0.5977306516917231
31.5600000000009          0.5795125883360263
31.580000000000894        0.5453118789623325
31.600000000000904        0.49786288749869506
31.620000000000925        0.444497458399412
31.64000000000094         0.3950229037073321
31.660000000000938        0.3538338900441471
31.680000000000938        0.321013726951686
31.700000000000944        0.2953035788325438
31.72000000000094         0.27540594421551573
31.74000000000094         0.26023219101297634
31.760000000000932        0.2489572112079725
31.780000000000953        0.24098313075158373
31.800000000000953        0.23589837402244326
31.820000000000952        0.233445955928867
31.840000000000952        0.23350294073136552
31.86000000000096         0.236070499527585
31.880000000000955        0.24127397943479473
31.900000000000954        0.24937298214870904
31.920000000000968        0.260782018873986
31.940000000000968        0.2761022058531184
31.960000000000974        0.2961609292016626
31.98000000000098         0.3220575235475726
32.00000000000096         0.3551205247143354
32.02000000000096         0.3966022297590904
32.04000000000096         0.44639263513563554
32.060000000000954        0.4999757991641886
32.08000000000094         0.5475895001592435
32.10000000000094         0.5821081801334552
32.12000000000095         0.6005635565341222
32.14000000000093         0.6059713260560916
32.16000000000093         0.600647430087315
32.18000000000094         0.5823385476572001
32.20000000000094         0.5479707449658515
32.22000000000096         0.5002931141324544
32.24000000000096         0.4467666326055233
32.26000000000098         0.39703542758180077
32.28000000000097         0.3556143771216705
32.30000000000098         0.3226154502925447
32.32000000000098         0.2967870756699232
32.340000000000984        0.27679861889770485
32.36000000000099         0.26155617544509446
32.38000000000098         0.25023062693540443
32.40000000000098         0.24222123683440047
32.42000000000099         0.2371145004970032
32.440000000000985        0.2346522382687526
32.460000000000996        0.23471095390493174
32.480000000000985        0.23729185225356786
32.500000000001           0.24251991082941377
32.52000000000099         0.2506574350599314
32.540000000001           0.2621205241130112
32.560000000001           0.2775136889556174
32.580000000001014        0.29767065813292537
32.600000000001           0.3236910569405325
32.620000000001           0.356912421921575
32.640000000000995        0.39859335223068026
32.660000000001           0.44862407214295286
32.68000000000099         0.5024689173651115
32.700000000000976        0.550320164855299
32.720000000000965        0.5850143869325665
32.740000000000975        0.6035669848637641
32.76000000000096         0.609004979089513
32.78000000000096         0.6036538912157392
32.80000000000098         0.5851869175293859
32.820000000000974        0.5505739007678818
32.84000000000098         0.5027955349810974
32.86000000000099         0.44901448093032564
32.880000000001           0.3990443060012858
32.900000000001           0.3574256554632523
32.920000000001004        0.3242703897408838
32.94000000000101         0.29832057324706507
32.96000000000101         0.2782389377656472
32.98000000000103         0.2629261462589368
33.00000000000101         0.25154895032787716
33.02000000000101         0.24350361790648378
33.04000000000102         0.23837463702088763
33.060000000001025        0.23590278621935615
33.080000000001036        0.2359633127442462
33.100000000001025        0.23855795325519916
33.12000000000102         0.24381329435990245
33.140000000001024        0.2519915359335862
33.16000000000103         0.2635114434575641
33.180000000001016        0.27898061142329833
33.200000000001026        0.29923702259362184
33.220000000001036        0.3253859221461259
33.240000000001025        0.35877171019388987
33.26000000000103         0.4006595745353398
33.28000000000102         0.4509399057430286
33.30000000000102         0.5050561029528355
33.32000000000101         0.5531527385086897
33.340000000001005        0.5880938236924065
33.360000000001           0.6066807111711786
33.380000000001           0.6121483735031175
33.40000000000099         0.6067693860675184
33.420000000001004        0.5882055692799723
33.44000000000102         0.5534144665777857
33.460000000001024        0.5053934798544953
33.48000000000103         0.45134394269791217
33.50000000000103         0.40112721163185033
33.52000000000103         0.3593048843898911
33.540000000001044        0.3259886348009053
33.56000000000105         0.29991391626313263
33.58000000000106         0.2797365875141765
33.600000000001046        0.26435394071007046
33.62000000000105         0.25292336248567404
33.64000000000105         0.24484094114958987
33.66000000000105         0.2396891323291801
33.680000000001066        0.23720724734720391
33.70000000000106         0.23727060720205617
33.72000000000107         0.23988046919621414
33.74000000000107         0.2451641312449959
33.76000000000106         0.2533852080324257
33.78000000000107         0.2649647008649791
33.800000000001056        0.28051343897738085
33.82000000000106         0.3008738674445735
33.84000000000107         0.32715712838391464
33.86000000000107         0.36071482968351964
33.88000000000106         0.40275125512148274
33.90000000000107         0.4532675048045448
33.92000000000105         0.50776522937617
33.94000000000104         0.5562528655548615
33.960000000001024        0.5912420617606872
33.98000000000103         0.6099317551958752
34.00000000000102         0.6154306119709754
34.02000000000103         0.6100220689898581
34.04000000000104         0.591356707784165
34.06000000000104         0.5563794943959584
34.080000000001064        0.5081053455918644
34.10000000000106         0.45377614463526306
34.12000000000108         0.4033028528112198
34.14000000000107         0.36126869690812813
34.160000000001084        0.327778701721086
34.18000000000107         0.3015814649787337
34.20000000000108         0.28130636837530554
34.2200000000011          0.26584641955299076
34.24000000000109         0.2543611457344434
34.260000000001085        0.2462409738394464
34.280000000001095        0.24106614625889866
34.300000000001084        0.23857461491341506
34.32000000000109         0.2386411136310514
34.340000000001105        0.241266986436642
34.360000000001094        0.2465802802715094
34.38000000000109         0.2548460872570438
34.40000000000111         0.26648773906653334
34.4200000000011          0.28212191451839286
34.4400000000011          0.3025891280961097
34.4600000000011          0.32900507949389973
34.48000000000109         0.36272094422191553
34.50000000000111         0.4050095737855249
34.52000000000109         0.4557974920281942
34.54000000000109         0.5105915368257357
34.56000000000108         0.5593481583711055
34.580000000001085        0.5945351982068436
34.60000000000108         0.61333396329579
34.62000000000107         0.6188663962745232
34.640000000001066        0.613427227105351
34.66000000000108         0.5946555747489675
34.68000000000107         0.5594835833707195
34.70000000000108         0.5109497521247538
34.72000000000111         0.4562296002565528
34.740000000001096        0.40551371075828285
34.76000000000111         0.3632994576257263
34.78000000000112         0.3296621593456975
34.80000000000111         0.3033296077277553
34.82000000000111         0.2829509255751436
34.840000000001126        0.267413014624687
34.860000000001136        0.25587079536024293
34.88000000000112         0.2477113775976647
34.90000000000112         0.2425127251808213
34.920000000001124        0.24001135487146888
34.94000000000113         0.24008134604742706
34.96000000000113         0.24272413491138994
34.98000000000112         0.2480695904376085
35.00000000000112         0.2563829177562316