% Model:              Untitled.mph
% Version:            COMSOL 5.6.0.280
% Date:               Oct 14 2021, 22:08
% Dimension:          1
% Nodes:              994
% Expressions:        1
% Description:        线图
% cln2x                   Height
21.91                     0.039018220258041754
21.920000000000027        0.03906830278799335
21.94000000000003         0.03946322367583415
21.96000000000003         0.040269041123536346
21.980000000000036        0.041525902320820755
22.00000000000004         0.04329839218440411
22.020000000000042        0.04568059951734939
22.040000000000045        0.0488026893747129
22.060000000000045        0.05283685891413556
22.080000000000048        0.05799354237546065
22.100000000000048        0.06447414832939806
22.12000000000006         0.07229120134794495
22.140000000000054        0.08072317123639021
22.16000000000005         0.0882518556023676
22.180000000000042        0.09374259439637184
22.20000000000005         0.0967055177591529
22.22000000000005         0.09759282596195133
22.240000000000055        0.09675825003862183
22.260000000000062        0.09385741101493246
22.280000000000076        0.0884279219663539
22.300000000000065        0.08092484251969016
22.320000000000068        0.07252061734484838
22.340000000000067        0.06475909789498213
22.360000000000074        0.05832148006075293
22.38000000000007         0.05320985137951907
22.40000000000007         0.049222634324756286
22.420000000000076        0.046149205356548165
22.440000000000087        0.0438175359309629
22.46000000000009         0.04209716961471917
22.480000000000093        0.04089397561745908
22.500000000000092        0.04014348126881271
22.520000000000092        0.03980577501981674
22.54000000000009         0.03986223767169547
22.560000000000088        0.040313991495766366
22.58000000000009         0.04118196646402883
22.6000000000001          0.042508586721230375
22.620000000000104        0.04436118309068073
22.640000000000107        0.046837236795193124
22.6600000000001          0.05007101556272582
22.680000000000106        0.054241341718541156
22.700000000000113        0.059565628281145616
22.720000000000105        0.06625194121573529
22.74000000000011         0.0742930198034328
22.76000000000011         0.08297307419030042
22.78000000000011         0.09072017153839243
22.800000000000107        0.09636841950542606
22.820000000000107        0.0994151915269348
22.840000000000114        0.10032663386170876
22.860000000000113        0.09946749072420821
22.880000000000116        0.09648450810382433
22.900000000000134        0.09090296805345506
22.920000000000126        0.08319116979542246
22.940000000000126        0.0745689612006367
22.96000000000013         0.06659021398306318
22.98000000000013         0.05997095699454891
23.00000000000013         0.05471846952248183
23.020000000000127        0.05062448515895855
23.040000000000138        0.047471150854934814
23.060000000000144        0.045080668657152
23.080000000000144        0.04331896379617155
23.100000000000147        0.04208933351528756
23.12000000000015         0.041325589504423985
23.14000000000015         0.040986818409767325
23.160000000000156        0.04105402509620662
23.180000000000152        0.04152854462091401
23.200000000000156        0.04243211927857291
23.220000000000166        0.0438083945544603
23.24000000000016         0.04572734678920218
23.26000000000016         0.04828955188655602
23.28000000000016         0.05163397800730076
23.30000000000017         0.05594435816042991
23.320000000000174        0.06144540199779482
23.340000000000163        0.068351706482042
23.36000000000017         0.07665552385280708
23.380000000000173        0.08561774080981305
23.400000000000166        0.09361575119430941
23.42000000000017         0.09944650311456214
23.44000000000017         0.10259162519452844
23.460000000000164        0.1035326782077321
23.48000000000017         0.10264633948477263
23.500000000000178        0.09955823219863125
23.520000000000184        0.09378805357855322
23.54000000000019         0.08585400376039617
23.56000000000019         0.0769602329436997
23.58000000000019         0.0687307030265444
23.60000000000019         0.061904753123311576
23.6200000000002          0.05648974158908126
23.640000000000196        0.05227068626444293
23.6600000000002          0.04902273773141708
23.680000000000213        0.046562395216664776
23.70000000000021         0.04475132132380289
23.72000000000021         0.04348978400315169
23.74000000000021         0.04270956904178525
23.760000000000208        0.04236859682335757
23.780000000000207        0.04244731251296613
23.80000000000021         0.04294735346358186
23.820000000000213        0.04389138305640897
23.84000000000023         0.045324993294435185
23.860000000000216        0.04732037409949187
23.880000000000223        0.04998196090378062
23.900000000000222        0.05345377672266591
23.920000000000222        0.057926192690449574
23.940000000000232        0.06363199133910456
23.960000000000235        0.07079341393423219
23.98000000000023         0.07940223634596678
24.000000000000234        0.08869234440665252
24.020000000000227        0.09698229142649821
24.040000000000223        0.10303684095700648
24.060000000000223        0.10628614733121658
24.08000000000023         0.10726222264536098
24.100000000000225        0.10634518528309211
24.120000000000232        0.10314731786212669
24.14000000000024         0.09717117941281127
24.160000000000245        0.0889537873972873
24.180000000000245        0.07974280541401124
24.200000000000255        0.07122067802900825
24.22000000000026         0.0641532573014148
24.240000000000254        0.05854805999368071
24.26000000000026         0.05418232577112404
24.280000000000264        0.050823123101760494
24.300000000000278        0.04828069028254408
24.320000000000267        0.04641088052092329
24.340000000000266        0.045110884548407275
24.36000000000027         0.04431012477839546
24.380000000000273        0.0439650863228747
24.400000000000272        0.04405574834233136
24.42000000000027         0.04458390365831107
24.440000000000264        0.04557326243107767
24.46000000000029         0.04707135123476268
24.48000000000028         0.04915333303434052
24.50000000000028         0.051927881823286205
24.520000000000284        0.05554481674852378
24.540000000000287        0.06020212815732997
24.56000000000029         0.06614187409764989
24.58000000000029         0.07358349161991402
24.60000000000029         0.08253703535009538
24.620000000000292        0.0922194899170967
24.640000000000292        0.10086747157629904
24.660000000000288        0.10714222357914403
24.680000000000287        0.11052320443607402
24.700000000000294        0.11153987578254271
24.720000000000294        0.11058788498289718
24.74000000000029         0.10726426871432555
24.760000000000296        0.10105185462036251
24.780000000000307        0.09250916954115976
24.80000000000031         0.08293377079095153
24.82000000000031         0.0740752642220489
24.840000000000312        0.06672999948219122
24.860000000000316        0.06090466764892055
24.88000000000032         0.05637087586428718
24.90000000000032         0.05288322408535399
24.92000000000032         0.05024470886481846
24.94000000000033         0.048306541102024037
24.960000000000328        0.046961406974390656
24.98000000000033         0.04613597335192773
25.000000000000327        0.045785090163042705
25.020000000000344        0.04588807236434815
25.040000000000333        0.04644695680261844
25.060000000000336        0.047486619925899816
25.080000000000336        0.049056765362903695
25.100000000000342        0.051235913768458485
25.120000000000342        0.05413797438723548
25.14000000000034         0.05791817515616469
25.16000000000034         0.06278286459801062
25.18000000000035         0.0689832073406826
25.200000000000347        0.07675903745265795
25.220000000000343        0.08610736567990301
25.240000000000343        0.09621559068672063
25.260000000000346        0.10524336475955119
25.280000000000342        0.11179379566952477
25.300000000000338        0.11532394288447678
25.320000000000338        0.11638665965150442
25.340000000000334        0.115395127642532
25.36000000000034         0.1119290311666051
25.380000000000347        0.10544876430787783
25.40000000000035         0.09653789520824747
25.420000000000368        0.08653162449008482
25.440000000000364        0.07729596632883586
25.46000000000037         0.06964241734085672
25.480000000000373        0.06357275259210723
25.500000000000377        0.05884636903394296
25.520000000000376        0.055211935204198044
25.54000000000038         0.052463933900846534
25.56000000000039         0.05044719746667621
25.580000000000382        0.04904978940486563
25.60000000000038         0.048195221406569656
25.62000000000039         0.047836453840373744
25.640000000000384        0.04795202069783732
25.660000000000387        0.048544206353504406
25.680000000000398        0.049639362372660784
25.700000000000394        0.05128934480322255
25.7200000000004          0.05357651311180538
25.740000000000396        0.05661962259857772
25.7600000000004          0.06058214839968615
25.780000000000403        0.06567969196005201
25.800000000000406        0.07217515059908572
25.82000000000041         0.08031949423479263
25.840000000000412        0.0901093926716499
25.860000000000404        0.10069400522186077
25.880000000000397        0.11014684336520575
25.900000000000404        0.1170058560451039
25.920000000000393        0.12070297340465631
25.940000000000385        0.12181717594617408
25.9600000000004          0.12078152843429536
25.9800000000004          0.11716809880560448
26.00000000000041         0.11040119254350794
26.020000000000408        0.10105013148650985
26.040000000000422        0.09057932892901538
26.06000000000042         0.08091554161115345
26.08000000000043         0.07290815530389842
26.100000000000428        0.0665589885537022
26.120000000000427        0.06161615800162104
26.140000000000434        0.05781655992354526
26.160000000000434        0.05494507012306353
26.180000000000454        0.052839327301935066
26.200000000000443        0.05138228151909296
26.220000000000443        0.05049386522171454
26.240000000000443        0.05012515940972264
26.260000000000446        0.05025361532944652
26.280000000000445        0.050881773069884624
26.30000000000045         0.05203721368582996
26.320000000000448        0.05377474441939958
26.34000000000046         0.056180772285570404
26.360000000000458        0.05937999771568435
26.380000000000457        0.06354404251091231
26.400000000000457        0.06889922083459615
26.420000000000456        0.07572144827754318
26.440000000000456        0.08427403069517363
26.460000000000463        0.09455328172403475
26.48000000000046         0.10566601675814362
26.50000000000046         0.11556243703047009
26.520000000000454        0.12277821100405419
26.540000000000457        0.12667348567468345
26.560000000000457        0.12784497150333832
26.580000000000457        0.12675989013406616
26.60000000000045         0.12296944090617291
26.62000000000046         0.1158694193516468
26.640000000000462        0.10605735118222404
26.660000000000476        0.09507036310335779
26.680000000000483        0.08493078492578367
26.70000000000048         0.07653008004223441
26.720000000000482        0.06987008706169402
26.740000000000485        0.06468638816912745
26.76000000000049         0.06070233743569161
26.78000000000049         0.05769315077776234
26.8000000000005          0.05548796907873576
26.8200000000005          0.053963900927930686
26.840000000000497        0.053037104886988956
26.860000000000497        0.052656103670377104
26.880000000000507        0.052797518725211746
26.900000000000503        0.05346412185017615
26.920000000000503        0.05468501165815559
26.940000000000506        0.05651791830897229
26.96000000000051         0.059053803413495976
26.980000000000512        0.06242390127254974
27.000000000000522        0.06680879439957002
27.02000000000051         0.07244657679047935
27.040000000000518        0.0796330354626621
27.060000000000517        0.08864236112109938
27.080000000000517        0.09946458323396787
27.100000000000517        0.11113756012540674
27.12000000000051         0.12155174325152905
27.140000000000505        0.12914471491413593
27.160000000000508        0.13324434191201778
27.180000000000504        0.13447847464895207
27.20000000000051         0.13333883313461065
27.220000000000514        0.12935342311336054
27.24000000000051         0.12188668943043751
27.260000000000524        0.11156719553475963
27.28000000000053         0.10001203120482506
27.30000000000054         0.08934865954434991
27.32000000000054         0.08052039575418404
27.340000000000543        0.07351395554402446
27.36000000000054         0.06806359040456504
27.380000000000543        0.06387707799732693
27.40000000000055         0.06071609759850359
27.420000000000545        0.05840111724377736
27.44000000000055         0.05680288708047702
27.46000000000056         0.05583325246303123
27.480000000000555        0.05543814594949128
27.500000000000558        0.05559311654532651
27.520000000000557        0.05630123755891107
27.540000000000564        0.05759327445866229
27.560000000000556        0.05953014484836979
27.58000000000057         0.06220730359421115
27.600000000000577        0.06576405620809653
27.62000000000057         0.07039075176913927
27.64000000000057         0.07633919061274959
27.660000000000572        0.08391697636690118
27.680000000000568        0.09341740497166619
27.70000000000057         0.10482858897880806
27.72000000000057         0.11713634288224474
27.740000000000563        0.128116998301276
27.76000000000056         0.13612341360066335
27.780000000000555        0.14044703547800977
27.80000000000057         0.1417497784612562
27.820000000000558        0.14055018529127777
27.840000000000565        0.13635084736815203
27.86000000000057         0.1284511265950843
27.880000000000575        0.1176051820161819
27.90000000000058         0.1054483829818129
27.920000000000606        0.09420510792070137
27.940000000000598        0.08488759635821114
27.960000000000594        0.0775054925784786
27.980000000000597        0.07176403108952259
28.0000000000006          0.06735511104426814
28.020000000000607        0.06402743881587827
28.040000000000603        0.06159174731673359
28.060000000000606        0.05991181531406543
28.08000000000062         0.058894764722658394
28.10000000000061         0.05848366650813131
28.12000000000062         0.058652830278888846
28.14000000000062         0.05940548606659879
28.16000000000062         0.06077438616784253
28.180000000000618        0.06282389737185785
28.20000000000062         0.06565541113542622
28.22000000000062         0.06941519362447231
28.24000000000063         0.07430462641877487
28.260000000000627        0.08058960663655773
28.28000000000063         0.08859497105513243
28.30000000000063         0.09863044536402282
28.32000000000063         0.11068353789646189
28.340000000000625        0.12368356734257957
28.36000000000062         0.1352825809289896
28.380000000000614        0.14374057558357076
28.40000000000061         0.14830916492178242
28.42000000000062         0.14968708260646074
28.440000000000616        0.14842156346489194
28.46000000000063         0.14397291140047466
28.480000000000626        0.13564767891653787
28.500000000000632        0.12419588807593347
28.520000000000643        0.1113606849068716
28.540000000000646        0.09949080002574583
28.56000000000066         0.08965483572668745
28.58000000000066         0.08186285367057898
28.60000000000066         0.07580358357053767
28.62000000000066         0.0711517427221872
28.640000000000665        0.0676419781961462
28.660000000000668        0.06507436257320293
28.680000000000668        0.06330523643143512
28.700000000000678        0.06223599580740325
28.72000000000067         0.06180692645265197
28.74000000000067         0.061990965012091975
28.760000000000673        0.06279174757841896
28.78000000000068         0.0642438170718977
28.80000000000068         0.06641536191522228
28.820000000000675        0.06941366672696199
28.84000000000068         0.07339346454786728
28.860000000000685        0.07856776744426834
28.88000000000069         0.08521780584606004
28.900000000000684        0.09368713057713425
28.920000000000684        0.10430332488977258
28.940000000000683        0.11705337557037437
28.960000000000683        0.13080667121490144
28.980000000000675        0.14311192449607643
29.00000000000067         0.15204408060703803
29.02000000000066         0.15686423242824912
29.040000000000667        0.1583240914314842
29.060000000000674        0.1569867337818928
29.08000000000067         0.15228154125697854
29.100000000000676        0.14347644799109355
29.120000000000687        0.13136526494854833
29.140000000000693        0.11779295803996295
29.160000000000704        0.10524282388496199
29.180000000000714        0.09484420054214128
29.200000000000717        0.08660746974270733
29.220000000000713        0.0802035655867665
29.240000000000713        0.0752883542266061
29.26000000000072         0.07158071011423424
29.28000000000072         0.06886963718078569
29.30000000000072         0.06700309242768744
29.32000000000072         0.06587736855469041
29.340000000000735        0.06542895581278295
29.360000000000728        0.06562929817654083
29.380000000000724        0.06648234302905699
29.40000000000073         0.06802475824673794
29.42000000000074         0.07032883405736637
29.440000000000733        0.07350825820586902
29.46000000000074         0.0777269634716391
29.480000000000743        0.08321059847922314
29.50000000000075         0.09025543602003018
29.520000000000742        0.09922326483976525
29.54000000000074         0.11045958330619003
29.560000000000745        0.12395993500751265
29.580000000000744        0.13855484900686404
29.600000000000733        0.15159430797402212
29.620000000000726        0.16106161501845356
29.640000000000718        0.16617300502609145
29.660000000000725        0.16772280338077747
29.680000000000728        0.16630699754124362
29.700000000000728        0.1613219086214084
29.720000000000734        0.15199415946179512
29.740000000000745        0.13916548953444183
29.760000000000748        0.12479204292883173
29.78000000000076         0.11148563220149686
29.80000000000078         0.10048629882474722
29.82000000000077         0.09177170355021176
29.840000000000767        0.08499479230829779
29.86000000000077         0.07979314775900116
29.880000000000777        0.07587050266811973
29.900000000000777        0.07300337162291365
29.92000000000078         0.07103081138302673
29.94000000000078         0.06984309551215172
29.960000000000793        0.06937300142545066
29.980000000000786        0.06959030176420773
30.00000000000079         0.07049923215639177
30.02000000000078         0.07213872915298516
30.040000000000788        0.07458593803624251
30.06000000000079         0.07796075394259883
30.080000000000794        0.08243720740832458
30.100000000000797        0.08825421450559276
30.1200000000008          0.09572662851797083
30.140000000000796        0.10523812180189082
30.160000000000796        0.11715478582910131
30.180000000000792        0.13147228041187378
30.200000000000784        0.1469525834332887
30.220000000000784        0.16078796972361273
30.240000000000776        0.1708366802153865
30.260000000000776        0.17626543279471982
30.280000000000776        0.17791291388971628
30.300000000000782        0.17640974440664747
30.32000000000079         0.1711349018994607
30.340000000000792        0.16125392200250102
30.3600000000008          0.14760209071828712
30.38000000000081         0.1323251190090049
30.400000000000816        0.11823159974916987
30.42000000000082         0.10655709279784072
30.440000000000833        0.09730290760270029
30.46000000000082         0.09010080539260354
30.480000000000828        0.08456617791391162
30.500000000000835        0.08038438254242078
30.520000000000838        0.07731774672688389
30.540000000000838        0.0751947694093631
30.560000000000834        0.07389816015014547
30.58000000000085         0.07335560216000285
30.600000000000847        0.07353386580733658
30.620000000000836        0.07443589676685539
30.640000000000843        0.07610101109036665
30.660000000000842        0.07860813960095657
30.68000000000085         0.08208209737881603
30.700000000000845        0.08670320651931662
30.72000000000085         0.09271965090551476
30.740000000000858        0.10045847910779175
30.760000000000858        0.1103180160364072
30.780000000000854        0.12267901982321265
30.800000000000853        0.13754521355703914
30.82000000000085         0.1536646082528345
30.840000000000835        0.16815638354205764
30.860000000000838        0.17872063195324822
30.88000000000083         0.18450842245633628
30.90000000000083         0.1862723108991893
30.920000000000837        0.18466527702950156
30.94000000000084         0.17906139150909298
30.960000000000846        0.16865896430653782
30.98000000000086         0.15436545361810436
31.000000000000867        0.1384669626478732
31.02000000000087         0.12384447506082151
31.040000000000877        0.11174678382305159
31.06000000000089         0.10216676504732151
31.080000000000894        0.09472120642182749
31.10000000000088         0.0890106976121745
31.12000000000089         0.08470841045326018
31.14000000000089         0.08156708590211142
31.160000000000895        0.0794098129367799
31.180000000000895        0.07811454371599223
31.20000000000089         0.07760689198424825
31.2200000000009          0.07785339884906159
31.240000000000904        0.07885866282037349
31.260000000000897        0.08066557332276181
31.280000000000904        0.08335866057777043
31.300000000000903        0.08707075159926109
31.320000000000917        0.09199309462790693
31.34000000000091         0.09838828882171048
31.360000000000923        0.10660167422375182
31.38000000000091         0.11705309106656474
31.4000000000009          0.13014378222024506
31.420000000000897        0.14591094607547556
31.440000000000904        0.16297714463308552
31.46000000000089         0.17836931150216093
31.48000000000091         0.18970268202882654
31.500000000000902        0.1959336290044261
31.520000000000902        0.19784396616566507
31.5400000000009          0.19610785731004646
31.5600000000009          0.1900794505358055
31.580000000000894        0.1789605381193881
31.600000000000904        0.16373930294979844
31.620000000000925        0.1468752544264528
31.64000000000094         0.13138450389115444
31.660000000000938        0.11856115249129257
31.680000000000938        0.10839473323738555
31.700000000000944        0.10047548243343718
31.72000000000094         0.09438718042504914
31.74000000000094         0.08978280723938328
31.760000000000932        0.08639997350876773
31.780000000000953        0.08404902323168327
31.800000000000953        0.08259986082865407
31.820000000000952        0.08197179877508635
31.840000000000952        0.0821270232041491
31.86000000000096         0.0830675259763219
31.880000000000955        0.08483530413601158
31.900000000000954        0.08751580068670158
31.920000000000968        0.09124480102052068
31.940000000000968        0.09621896635828067
31.960000000000974        0.10270903618747593
31.98000000000098         0.1110750066314785
32.00000000000096         0.12175395315496423
32.02000000000096         0.13516641080887581
32.04000000000096         0.15132229251091248
32.060000000000954        0.168877153065223
32.08000000000094         0.18476280680849977
32.10000000000094         0.19649002832881757
32.12000000000095         0.20296174120283986
32.14000000000093         0.2049516847238031
32.16000000000093         0.20314375357366576
32.18000000000094         0.19688087617122046
32.20000000000094         0.18537135255402634
32.22000000000096         0.16965666766902743
32.24000000000096         0.15233140554162844
32.26000000000098         0.13641861133228309
32.28000000000097         0.12326422431415417
32.30000000000098         0.11285462278154815
32.32000000000098         0.10476578674974228
32.340000000000984        0.09855737295454767
32.36000000000099         0.09386939334624043
32.38000000000098         0.09042972072960175
32.40000000000098         0.0880416366607324
32.42000000000099         0.08657018467106743
32.440000000000985        0.08593158166618642
32.460000000000996        0.08608637491920126
32.480000000000985        0.08703619989721127
32.500000000001           0.08882365071343605
32.52000000000099         0.09153684137926783
32.540000000001           0.09531538185392342
32.560000000001           0.10036220048000696
32.580000000001014        0.10695770831086909
32.600000000001           0.11547284296094873
32.620000000001           0.12636163417687435
32.640000000000995        0.14006285771636293
32.660000000001           0.1565992096471228
32.68000000000099         0.1746134582797722
32.700000000000976        0.19097009805717263
32.720000000000965        0.20307806978066348
32.740000000000975        0.20978704966801348
32.76000000000096         0.21185855571577644
32.78000000000096         0.20998393793820366
32.80000000000098         0.20347977710210738
32.820000000000974        0.19158875108078444
32.84000000000098         0.1754609927619463
32.86000000000099         0.1576891523441697
32.880000000001           0.14141172807694904
32.900000000001           0.12798492991343954
32.920000000001004        0.1173821426847065
32.94000000000101         0.10916052664336111
32.96000000000101         0.1028630466456618
32.98000000000103         0.0981168976264056
33.00000000000101         0.09464074633740394
33.02000000000101         0.09223150872381491
33.04000000000102         0.0907499033009134
33.060000000001025        0.09010940845011393
33.080000000001036        0.09026887516051788
33.100000000001025        0.09122976256509703
33.12000000000102         0.09303577058717218
33.140000000001024        0.09577672668640011
33.16000000000103         0.0995961377871586
33.180000000001016        0.10470280452581271
33.200000000001026        0.11138587203692142
33.220000000001036        0.12002871434784067
33.240000000001025        0.13110196936023058
33.26000000000103         0.14506373840211914
33.28000000000102         0.16195141512825514
33.30000000000102         0.18039794123960984
33.32000000000101         0.1972049711663491
33.340000000001005        0.2097038959124746
33.360000000001           0.21662659128930406
33.380000000001           0.2187785685990713
33.40000000000099         0.2168383459619105
33.420000000001004        0.21011622078016276
33.44000000000102         0.1978715609103926
33.460000000001024        0.1813099035458472
33.48000000000103         0.1631231052987924
33.50000000000103         0.1465124744060311
33.52000000000103         0.13284378214654005
33.540000000001044        0.12207558801182551
33.56000000000105         0.11374555432088058
33.58000000000106         0.10737961229260586
33.600000000001046        0.10259273328761241
33.62000000000105         0.09909301205960921
33.64000000000105         0.09667214462430669
33.66000000000105         0.0951869313528396
33.680000000001066        0.09454844405742929
33.70000000000106         0.09471454189907802
33.72000000000107         0.09568628410066302
33.74000000000107         0.09750809342585963
33.76000000000106         0.10027169077735161
33.78000000000107         0.10412400245839236
33.800000000001056        0.10927934123845875
33.82000000000106         0.11603528435930183
33.84000000000107         0.12478756675101156
33.86000000000107         0.1360238367125123
33.88000000000106         0.15020237598129363
33.90000000000107         0.16740807309248437
33.92000000000105         0.1862907856048273
33.94000000000104         0.20357542516084265
33.960000000001024        0.2163993344506566
33.98000000000103         0.22355157004771167
34.00000000000102         0.22578356873229402
34.02000000000103         0.2237788632586462
34.04000000000104         0.21684288799979415
34.06000000000104         0.20425361123377014
34.080000000001064        0.18727348967276425
34.10000000000106         0.16869336385443093
34.12000000000108         0.1517745375407705
34.14000000000107         0.13788901020696315
34.160000000001084        0.12697637058114092
34.18000000000107         0.11855900346314319
34.20000000000108         0.1121405758058334
34.2200000000011          0.10732420034813839
34.24000000000109         0.10381122886650808
34.260000000001085        0.1013866869702167
34.280000000001095        0.09990360984944949
34.300000000001084        0.09927084001271884
34.32000000000109         0.09944512033360758
34.340000000001105        0.10042732556751387
34.360000000001094        0.10226259059890232
34.38000000000109         0.10504435285671586
34.40000000000111         0.10892260156455558
34.4200000000011          0.11411743420716425
34.4400000000011          0.12093238353086522
34.4600000000011          0.1297746415303909
34.48000000000109         0.14114643271068641
34.50000000000111         0.15554542796692336
34.52000000000109         0.17305440796084753
34.54000000000109         0.19232937668752992
34.56000000000108         0.21004011256658345
34.580000000001085        0.2232233374032549
34.60000000000108         0.2306063317637928
34.62000000000107         0.23291992571791678
34.640000000001066        0.23085168381408974
34.66000000000108         0.2237036395976553
34.68000000000107         0.21077554171852395
34.70000000000108         0.19338284889563537
34.72000000000111         0.174405684531375
34.740000000001096        0.1572134472242296
34.76000000000111         0.14314815078403934
34.78000000000112         0.13212237876109004
34.80000000000111         0.12363376722497688
34.82000000000111         0.1171764626624416
34.840000000001126        0.11234150751910406