% Model:              Untitled.mph
% Version:            COMSOL 5.6.0.280
% Date:               Oct 5 2021, 10:19
% Dimension:          1
% Nodes:              994
% Expressions:        1
% Description:        线图
% cln1x                   Height
49.25                     0.2989012175411562
49.260000000000076        0.2976856734500726
49.28000000000008         0.2977332407734759
49.300000000000104        0.30117314960753405
49.32000000000011         0.3082576745500069
49.340000000000096        0.3194268625166527
49.36000000000012         0.33534479590098026
49.38000000000012         0.35694729611541715
49.40000000000012         0.385483549368886
49.42000000000013         0.42247867714716847
49.440000000000154        0.46937789105613514
49.46000000000015         0.5262532306143245
49.480000000000146        0.5878566201849527
49.50000000000016         0.6430795587270205
49.52000000000017         0.6833587101265592
49.540000000000184        0.7050451688446687
49.56000000000018         0.7112999926800705
49.58000000000018         0.7046564194445721
49.600000000000186        0.6825284574719226
49.62000000000019         0.6415890064109165
49.64000000000019         0.5851883487526299
49.66000000000021         0.5221337825825055
49.680000000000234        0.46373468406226015
49.70000000000021         0.4149954611590288
49.720000000000226        0.3759913358640924
49.74000000000024         0.3452896598676144
49.76000000000023         0.32136737421555156
49.780000000000236        0.30296979990460915
49.800000000000246        0.2891384210499227
49.82000000000026         0.2791768343466948
49.840000000000266        0.27260327009883367
49.86000000000027         0.2691135309616604
49.88000000000028         0.2685567815668457
49.90000000000028         0.2709236139354104
49.920000000000314        0.2763457521522725
49.9400000000003          0.28510747813157167
49.96000000000031         0.2976678593623987
49.9800000000003          0.3146922481831218
50.00000000000031         0.3371000000546836
50.02000000000032         0.36612078047717966
50.040000000000326        0.4032422355096897
50.06000000000035         0.44986784620787496
50.08000000000034         0.5058881302809561
50.10000000000035         0.566298111322457
50.12000000000035         0.6201781152567681
50.140000000000356        0.6593468220599417
50.16000000000036         0.6803687774856383
50.18000000000037         0.6864653636775734
50.20000000000038         0.6801783544828744
50.220000000000375        0.6590021989875171
50.240000000000364        0.6196214873238907
50.260000000000396        0.5652231581595807
50.28000000000039         0.5043533887076108
50.30000000000041         0.4477969817087035
50.3200000000004          0.4005786257858045
50.34000000000042         0.36282478302439625
50.36000000000043         0.33314271100507115
50.380000000000436        0.31004831745673883
50.40000000000044         0.29231975336563704
50.42000000000046         0.27902977983274363
50.44000000000047         0.2695054186500303
50.46000000000046         0.2632819517309744
50.48000000000047         0.2600670261965761
50.500000000000476        0.2597172232401203
50.520000000000486        0.26222650135865394
50.54000000000049         0.26772583511327397
50.5600000000005          0.2764922581631713
50.58000000000052         0.2889776989271182
50.60000000000052         0.30583574030856586
50.620000000000516        0.3279716365739612
50.640000000000526        0.3565809815429306
50.66000000000053         0.3931184149528236
50.68000000000056         0.438951040582616
50.70000000000054         0.49395493717449074
50.720000000000546        0.553189777935982
50.74000000000055         0.6059303833718918
50.760000000000545        0.6442178465009307
50.78000000000055         0.6647257046244327
50.800000000000544        0.6706712255397131
50.820000000000555        0.6645685815613764
50.84000000000056         0.6438841595562097
50.86000000000058         0.6053838621709672
50.88000000000057         0.552386076841034
50.90000000000059         0.4928404783079322
50.92000000000061         0.43747905952481786
50.9400000000006          0.3912548397165751
50.96000000000063         0.35430106155611035
50.98000000000063         0.3252560710393546
51.000000000000625        0.3026677421027646
51.02000000000064         0.28534072970174396
51.04000000000065         0.27236817442329064
51.06000000000067         0.26309215660541635
51.080000000000666        0.25705867592666237
51.10000000000067         0.25398275795296127
51.12000000000068         0.25372436835185685
51.14000000000068         0.25627949409965145
51.16000000000069         0.2617779067897228
51.180000000000696        0.27049445969962665
51.20000000000071         0.28287134121310537
51.2200000000007          0.29955248509458104
51.24000000000072         0.3214278450249436
51.260000000000716        0.34967237736420415
51.280000000000726        0.38571499720566604
51.30000000000074         0.4308966406966073
51.32000000000074         0.4850853902977239
51.34000000000075         0.54339689607634
51.36000000000074         0.5952601705006446
51.38000000000074         0.632950088444562
51.40000000000074         0.6530027675514044
51.42000000000074         0.6588326149241583
51.44000000000075         0.6528592849002034
51.46000000000077         0.6325816788410328
51.48000000000077         0.5947874966419846
51.500000000000774        0.5427234036553017
51.52000000000079         0.4841800502626624
51.54000000000081         0.42973018764249676
51.5600000000008          0.3842642004986427
51.58000000000082         0.3479190152645602
51.600000000000826        0.3193567935418246
51.62000000000083         0.29715000082056314
51.64000000000084         0.2801235949935172
51.660000000000835        0.26738802416463997
51.68000000000086         0.2582926207091197
51.70000000000086         0.25239402108377673
51.72000000000088         0.2494123762835314
51.74000000000087         0.2492114249063875
51.760000000000886        0.2517874988632761
51.780000000000896        0.25726930840982704
51.8000000000009          0.26592850004830265
51.82000000000092         0.2782016059048976
51.840000000000906        0.2947239596004839
51.86000000000092         0.3163733391142443
51.88000000000091         0.3443083505673468
51.90000000000093         0.3799376159113548
51.920000000000925        0.42450939957834644
51.940000000000936        0.4780047705910123
51.96000000000094         0.535672611739888
51.980000000000935        0.586978665743203
52.00000000000094         0.6239901204337379
52.020000000000934        0.6437425720557283
52.04000000000095         0.6494816154696944
52.06000000000094         0.6436029213965399
52.08000000000094         0.623633755868076
52.100000000000975        0.5863874532202777
52.12000000000097         0.5350569931987144
52.14000000000098         0.47731306686063923
52.160000000001           0.42359513097268564
52.180000000001016        0.3787380066559054
52.20000000000103         0.3428735309651996
52.22000000000103         0.3147047646888518
52.24000000000105         0.29280335895095794
52.26000000000104         0.2760147351297268
52.28000000000106         0.2634616177890064
52.30000000000106         0.2545071632554856
52.320000000001066        0.2487120082883081
52.34000000000109         0.24580054600081375
52.36000000000108         0.24563888558253102
52.380000000001104        0.2482240408774262
52.4000000000011          0.2536837560020329
52.420000000001096        0.26228696553955866
52.440000000001135        0.274465493925859
52.460000000001116        0.29084754755385384
52.48000000000113         0.31230171017693137
52.50000000000114         0.3399635900090397
52.52000000000114         0.3752194214530168
52.54000000000114         0.41936650052953994
52.560000000001146        0.4723025365162605
52.58000000000115         0.5293482579383293
52.60000000000112         0.580078035452851
52.62000000000113         0.6166603362109272
52.640000000001116        0.6361743713654684
52.66000000000112         0.6418449917647779
52.680000000001115        0.6360477227385947
52.70000000000113         0.6163342723281008
52.72000000000115         0.57953890653902
52.74000000000117         0.5288157790880016
52.760000000001185        0.4716236405719972
52.780000000001195        0.41853061840431593
52.800000000001205        0.37421459825141407
52.820000000001215        0.33877845671718093
52.840000000001226        0.3109257950030036
52.86000000000124         0.2892734446132589
52.880000000001225        0.27268008885551825
52.90000000000124         0.26027858288637823
52.92000000000125         0.2514395215920777
52.94000000000125         0.24572878735443973
52.96000000000128         0.24287422085090096
52.98000000000127         0.24274384968561244
53.00000000000128         0.24533522294325874
53.020000000001296        0.25077635153763533
53.0400000000013          0.25933237376324664
53.0600000000013          0.27143171298822616
53.08000000000131         0.2876962314783203
53.10000000000133         0.30898379589872454
53.120000000001326        0.33642434102612007
53.14000000000133         0.3713877185370538
53.160000000001325        0.4151576336032365
53.180000000001336        0.46762969448430775
53.200000000001324        0.5241618041690268
53.22000000000133         0.574419905908968
53.240000000001324        0.6106534371540492
53.26000000000131         0.6299759172581791
53.28000000000132         0.6355922335263271
53.30000000000133         0.6298612320599334
53.320000000001336        0.6104219727486656
53.34000000000135         0.5740696499983347
53.360000000001364        0.5236932242302209
53.38000000000139         0.467039969782334
53.400000000001405        0.41444028411807954
53.4200000000014          0.37053469891651386
53.44000000000142         0.33542728877865313
53.46000000000144         0.30783447685330123
53.480000000001446        0.286386415820402
53.50000000000144         0.26995276653419453
53.52000000000145         0.25767475243449567
53.540000000001456        0.24892908198108915
53.560000000001466        0.24328535597478698
53.58000000000148         0.24047580143582248
53.60000000000148         0.24036899303698994
53.62000000000148         0.24296296551640445
53.64000000000149         0.24838400150038314
53.660000000001496        0.2568969112959343
53.68000000000151         0.26892627672593045
53.70000000000152         0.2850890803709012
53.720000000001534        0.30623631862344164
53.74000000000153         0.33348871827204185
53.76000000000153         0.3682047830113557
53.780000000001536        0.41165706406791036
53.80000000000154         0.4637394498005867
53.82000000000152         0.5198401869727521
53.84000000000152         0.569555517142646
53.860000000001506        0.605570627490059
53.88000000000151         0.624797787468758
53.90000000000152         0.6303664087355979
53.920000000001515        0.6246855903395002
53.940000000001525        0.6054122270390628
53.96000000000154         0.5693613351141866
53.98000000000157         0.5193950449410075
54.0000000000016          0.4631946361373318
54.020000000001595        0.4110113395819785
54.040000000001605        0.36745205363170697
54.060000000001615        0.33262147965453037
54.080000000001625        0.305246955993653
54.10000000000164         0.2839699855023807
54.12000000000164         0.2676672073460311
54.140000000001656        0.2554923076756807
54.16000000000165         0.24682413967359815
54.18000000000166         0.24123639996096763
54.200000000001666        0.2384621191152199
54.22000000000167         0.23837223266164836
54.240000000001686        0.24096508989305554
54.26000000000169         0.2463663279696478
54.28000000000169         0.25483908814359957
54.300000000001695        0.2668051137414072
54.320000000001706        0.2828771485245867
54.34000000000174         0.3039002451273668
54.360000000001726        0.33098718206164063
54.38000000000173         0.36551493442332184
54.40000000000174         0.4087318907216602
54.420000000001735        0.46050077464684647
54.44000000000173         0.516127141173864
54.46000000000172         0.5655081538570356
54.480000000001716        0.6012727253327831
54.50000000000171         0.6203631475622924
54.52000000000174         0.6258936444018963
54.54000000000171         0.6202597653333699
54.56000000000173         0.6011332141396991
54.58000000000176         0.5653443141665957
54.600000000001764        0.5157314684664085
54.6200000000018          0.45991717067260485
54.640000000001805        0.408087195849444
54.660000000001816        0.3648498124651711
54.680000000001826        0.33023259864561977
54.700000000001836        0.3030357112398422
54.72000000000187         0.2819020743474592
54.74000000000185         0.26571457841790386
54.76000000000187         0.2536260349374488
54.78000000000186         0.24502225118352222
54.80000000000187         0.23947999353760058
54.820000000001876        0.23673425613343704
54.84000000000188         0.2366569992718962
54.8600000000019          0.2392467888737767
54.880000000001885        0.24462867228425375
54.9000000000019          0.2530643206942294
54.92000000000191         0.264972996062371
54.940000000001916        0.28096119245763207
54.960000000001905        0.3018756161784467
54.98000000000192         0.328823758761337
55.00000000000195         0.36315391799711866
55.020000000001936        0.4061272216937306
55.04000000000193         0.4575988652790847
55.06000000000194         0.5128986404662688
55.080000000001924        0.561981168992386
55.100000000001906        0.5975248586413247
55.12000000000191         0.6164936072795015
55.14000000000191         0.6219884832211582
55.16000000000192         0.6163923717245089
55.18000000000193         0.5973896590983584
55.20000000000194         0.5616825057892487
55.220000000001974        0.5125139528742253
55.24000000000201         0.4571383585381813
55.260000000002           0.40559375177647095
55.280000000002026        0.36254453179285956
55.30000000000204         0.3281332562081295
55.32000000000203         0.30109813714932
55.340000000002064        0.28009061382569544
55.36000000000205         0.2640005524281186
55.38000000000207         0.25198605508784316
55.40000000000208         0.2434367822790531
55.420000000002084        0.237932192367613
55.440000000002094        0.2352090174448108
55.4600000000021          0.2351401070860703
55.48000000000212         0.2377235603645579
55.50000000000212         0.24308449312607178
55.52000000000212         0.2514829956348303
55.54000000000213         0.26333614771402103
55.560000000002134        0.2792500917830323
55.580000000002165        0.30006149011517624
55.600000000002154        0.326873900113968
55.620000000002165        0.36102791523510946
55.640000000002146        0.4037771780593694
55.66000000000215         0.45497641587549986
55.68000000000214         0.5099782794097905
55.70000000000213         0.5587903565471714
55.7200000000021          0.5941349126467123
55.7400000000021          0.6129949657572766
55.76000000000211         0.6184585877773904
55.78000000000212         0.6128963832696823
55.80000000000213         0.5939393328917568
55.82000000000214         0.558503776313444
55.84000000000217         0.509611376047738
55.8600000000022          0.4545407249434552
55.88000000000221         0.40327663248631385
55.90000000000223         0.3604602796512259
55.92000000000224         0.32623447847811704
55.94000000000226         0.29934482563621845
55.96000000000227         0.27845044226427573
55.98000000000226         0.2624474851940886
56.00000000000228         0.25049882264840506
56.0200000000023          0.2419986298858154
56.040000000002294        0.2365261808673099
56.0600000000023          0.23382138994132104
56.08000000000231         0.2337578525658219
56.100000000002325        0.23633427300598367
56.120000000002314        0.24167441990060623
56.14000000000232         0.2500372508685358
56.160000000002334        0.26183771381259147
56.180000000002345        0.277678808906556
56.20000000000236         0.29839281362385184
56.220000000002344        0.3250774526757735
56.24000000000236         0.35906616520542706
56.26000000000237         0.40160569220580933
56.280000000002346        0.4525505071256195
56.30000000000235         0.5072805565703857
56.32000000000233         0.5559790830966077
56.34000000000233         0.5910645185875864
56.36000000000231         0.6097583335146792
56.38000000000231         0.6151934260675497
56.40000000000232         0.6096649006610071
56.420000000002354        0.5908140811994478
56.44000000000235         0.5555686994561749
56.460000000002374        0.5069325711976301
56.480000000002406        0.45214284872802774
56.50000000000242         0.4011362080669447
56.52000000000245         0.3585333321646166
56.54000000000246         0.3244774299525833
56.56000000000247         0.29772084087638295
56.580000000002485        0.27693220839754656
56.60000000000248         0.26100818634241935
56.620000000002484        0.24911830146783157
56.640000000002495        0.24065929736426664
56.660000000002505        0.23521531645205873
56.68000000000251         0.23252599579474376
56.700000000002525        0.23246563839005868
56.720000000002536        0.23503302810217122
56.74000000000253         0.24035134692868962
56.760000000002535        0.2486782461351291
56.780000000002545        0.260426607050492
56.80000000000255         0.2761964343998398
56.82000000000256         0.2968158474306421
56.84000000000255         0.32337043614345024
56.86000000000257         0.35717896018445794
56.880000000002575        0.39947617817201936
56.900000000002564        0.4501525567841333
56.920000000002545        0.5047112306536582
56.940000000002534        0.5531687098890747
56.960000000002516        0.5880776635782823
56.98000000000251         0.6066754498425019
57.000000000002515        0.6120829521035043
57.020000000002526        0.6065851572838671
57.04000000000255         0.5878339006972958
57.06000000000255         0.5527684815922351
57.080000000002585        0.5043759225496277
57.10000000000261         0.4498546868423637
57.120000000002634        0.3990259853592313
57.140000000002665        0.35666885290704875
57.16000000000267         0.32279689708216347
57.18000000000268         0.29617523981434407
57.20000000000272         0.275484670865379
57.2200000000027          0.2596364670402844
57.2400000000027          0.24780349370338875
57.26000000000271         0.23938552239308916
57.280000000002715        0.2339687897169142
57.300000000002726        0.23129425914395552
57.32000000000274         0.23123690436320152
57.34000000000275         0.23379558537582862
57.36000000000275         0.23909296158040053
57.38000000000276         0.24738546980245466
57.40000000000276         0.25908629226666063
57.42000000000277         0.2747881741106864
57.44000000000279         0.2953154674814404
57.460000000002786        0.321751275869047
57.48000000000279         0.35540794847001295
57.50000000000279         0.39751326473458015
57.520000000002774        0.4479573596587331
57.54000000000276         0.5022623614480528
57.56000000000274         0.550489740529592
57.58000000000272         0.5852301412706241
57.6000000000027          0.6037360359082651
57.62000000000271         0.6091168177105963
57.64000000000271         0.603647679877487
57.660000000002725        0.5850569324591106
57.68000000000275         0.5502370297877414
57.70000000000278         0.5019410288299884
57.72000000000283         0.44757736579010127
57.74000000000284         0.39707830112015485
57.76000000000286         0.35491686820752916
57.780000000002886        0.3212006451623115
57.80000000000288         0.2947009192927442
57.82000000000291         0.27410490413838734
57.8400000000029          0.25832914728638257
57.86000000000291         0.2465505091166247
57.88000000000292         0.23817165867867016
57.900000000002926        0.23278083451602255
57.920000000002936        0.23012026496611232
57.94000000000295         0.2300657394067593
57.96000000000296         0.2326161968716169
57.98000000000296         0.2378936796248384
58.00000000000297         0.24615351859391646
58.02000000000297         0.2578046021734921
58.040000000002976        0.27344080707423796
58.060000000003           0.29388099433212256
58.080000000003           0.3202032134861573
58.10000000000301         0.3537136413965781
58.120000000002996        0.3956341334972748
58.14000000000299         0.44585463253135127
58.160000000002974        0.4999161259452892
58.18000000000294         0.5479239203016062
58.200000000002916        0.5825042197634119
58.22000000000291         0.6009228101158267
58.24000000000291         0.6062797533432072
58.26000000000292         0.6008390281406868
58.28000000000293         0.5823371080725871
58.300000000002946        0.5476803252221322
58.32000000000298         0.49960669662909746
58.340000000003016        0.44548891175061706
58.360000000003055        0.3952157756272958
58.380000000003065        0.3532417399557963
58.40000000000307         0.3196746192702238
58.4200000000031          0.2932915996825308
58.440000000003096        0.27278604390433286
58.46000000000312         0.257079544616134
58.48000000000312         0.24535114923591275
58.500000000003126        0.23701017413706385
58.520000000003144        0.2316444111284764
58.54000000000313         0.2289973248881586
58.56000000000315         0.22894518462896535
58.58000000000317         0.23148702192611684
58.60000000000317         0.23674455072294517
58.62000000000316         0.24497202077900768
58.64000000000318         0.25657653901706695
58.66000000000319         0.27214931603008835
58.68000000000319         0.2925055330286077
58.7000000000032          0.3187184144443789
58.72000000000321         0.3520882674647642
58.74000000000321         0.3938313182249217
58.76000000000319         0.4439299594633598
58.78000000000318         0.4976588212721539
58.80000000000315         0.5453197014956292
58.820000000003134        0.579819015725525
58.840000000003116        0.5982193801174375
58.86000000000312         0.6035518824036655
58.88000000000313         0.5981377000319352
58.900000000003125        0.5797222853785253
58.920000000003164        0.5452227539482383
58.94000000000318         0.4973632736474525
58.960000000003234        0.4434818499349725
58.980000000003244        0.39342571437270935
59.00000000000329         0.35163164518831097
59.020000000003286        0.31820770861557796
59.0400000000033          0.2919359221242636
59.06000000000332         0.2715155104111499
59.08000000000331         0.2558756092244268
59.100000000003334        0.24419911937153463
59.12000000000334         0.2358936850621138
59.14000000000335         0.23055120161088738
59.16000000000335         0.22791628610881876
59.18000000000335         0.2278657749906097
59.20000000000338         0.2303987297294575
59.220000000003374        0.23563636201260071
59.24000000000338         0.24383185240105135
59.260000000003394        0.25539058373202106
59.2800000000034          0.2709012090781842
59.30000000000341         0.291174503704663
59.3200000000034          0.3172879409655274
59.34000000000343         0.35054144155586986
59.36000000000342         0.3921519619430445
59.38000000000341         0.4419733133759946
59.40000000000338         0.4954748809422819
59.42000000000336         0.5429307919114842
59.440000000003344        0.5772799215926756
59.46000000000334         0.5955988186958269
59.48000000000332         0.6009080261241138
59.50000000000333         0.5955195927212938
59.52000000000334         0.5771877987791995
59.54000000000337         0.5428404809136994
59.5600000000034          0.4951885184778541
59.58000000000344         0.44162861705605955
59.60000000000346         0.3917588887310004
59.620000000003486        0.35009932235800106
59.6400000000035          0.3167938039161239
59.66000000000351         0.2906244547431458
59.680000000003524        0.2702884490900853
59.700000000003534        0.25471311125258816
59.72000000000355         0.24308490484424194
59.74000000000354         0.23481405414505202
59.76000000000355         0.22949423303023198
59.78000000000356         0.22687117630197848
59.800000000003564        0.22682226927958374
59.82000000000359         0.22934659914671346
59.84000000000358         0.23456488285568597
59.86000000000359         0.24272761390977762
59.880000000003584        0.2542411283774497
59.9000000000036          0.26969102508835235
59.92000000000361         0.2898868606088869
59.94000000000363         0.31589631056418643
59.96000000000364         0.34901613348090266
59.98000000000362         0.3904579147178731
60.00000000000362         0.4400755540042678
60.02000000000359         0.49335637641765584
60.04000000000357         0.540614395385855
60.06000000000351         0.574819194985856
60.08000000000354         0.5930605824233844
60.10000000000353         0.5983481641791625
60.12000000000353         0.5929843385512753
60.140000000003546        0.5746690666386554
60.16000000000356         0.5403955360657037
60.1800000000036          0.4930777696144053
60.20000000000364         0.4397456365820281
60.22000000000367         0.3900803340802589
60.2400000000037          0.348590439948123
60.26000000000371         0.3154199031257906
60.280000000003724        0.28935617601158836
60.30000000000373         0.26910200036185955
60.32000000000374         0.25358925983911196
60.34000000000376         0.24200786892806342
60.360000000003765        0.23377055353427695
60.38000000000377         0.2284727129490188
60.40000000000377         0.22586133603796818
60.42000000000378         0.22581366009396847
60.4400000000038          0.22832928574733122
60.46000000000379         0.23352839820405996
60.4800000000038          0.24166208684501134
60.50000000000381         0.2531325087113326
60.52000000000382         0.2685239378937072
60.540000000003815        0.2886426479390919
60.56000000000383         0.31455191500601787
60.58000000000384         0.3475431353481732
60.60000000000383         0.3888227940633181
60.62000000000383         0.43824470303024765
60.6400000000038          0.49131245430132287
60.66000000000378         0.5383774419389621
60.68000000000374         0.572505753246735
60.70000000000374         0.5906048493965104
60.72000000000373         0.5958689132693166
60.74000000000373         0.5905286882293206
60.76000000000374         0.5722915797158108
60.78000000000378         0.5381608003578175
60.80000000000381         0.4910372919393712
60.82000000000385         0.43792072688229566
60.84000000000388         0.3884542111568702
60.86000000000391         0.34712940821876387
60.880000000003925        0.31409027207513174
60.900000000003935        0.28812942799505586
60.920000000003945        0.2679550224543014
60.940000000003955        0.25250559462536337
60.96000000000397         0.24096930693375354
60.980000000003976        0.232764209682229
61.00000000000398         0.22748747609085596
61.02000000000399         0.22488695941504755
61.040000000004014        0.22484104246541164
61.06000000000401         0.22734880795672988
61.080000000004006        0.2325299849398302
61.100000000004016        0.24063468139855668
61.12000000000401         0.2520634695454998
61.140000000004044        0.2673983179539823
61.16000000000405         0.28744231605212567
61.18000000000404         0.3132544934609465
61.20000000000406         0.34612101568786174
61.22000000000405         0.387176302307916
61.24000000000403         0.43638420902049313
61.260000000004           0.48934302637257265
61.28000000000398         0.5363550554478637
61.30000000000395         0.5702087659559412
61.32000000000393         0.5882345338341817
61.34000000000392         0.5934773958792383
61.36000000000393         0.5881598038848106
61.380000000003946        0.5699974898265281
61.40000000000398         0.5360038810226321
61.42000000000402         0.48906750819698375
61.440000000004055        0.43615933063889656
61.46000000000409         0.3868852853722993
61.48000000000412         0.3457203589259875
61.50000000000413         0.3128020249708803
61.52000000000415         0.28694801609180126
61.54000000000415         0.26685246239548865
61.56000000000416         0.25145970849602844
61.580000000004176        0.23996768598856102
61.60000000000417         0.23179434832192206
61.62000000000419         0.22653849385837077
61.640000000004186        0.22394901163105838
61.6600000000042          0.22390480044931552
61.68000000000422         0.22640497501120577
61.70000000000422         0.23156882309648116
61.72000000000422         0.23964550463942097
61.74000000000422         0.2510340596420999
61.76000000000424         0.2663166639570283
61.78000000000424         0.2862868064759975
61.80000000000425         0.3119979301576261
61.82000000000427         0.3447234858727288
61.84000000000425         0.38565407439860905
61.86000000000425         0.43467880419877203
61.88000000000421         0.4874384498662697
61.900000000004184        0.5342710882800129
61.92000000000415         0.5679942050731975
61.940000000004154        0.5859494992079919
61.960000000004136        0.5911722069950922
61.98000000000414         0.5858768535606496
62.00000000000414         0.567787211438126
62.02000000000418         0.5339263417640906
62.04000000000423         0.48717664621928475
62.06000000000426         0.4343727768768598
62.08000000000429         0.3853081363147681
62.100000000004336        0.34433705201854875
62.12000000000433         0.3115682621342075
62.140000000004356        0.2858103015073476
62.16000000000435         0.26578925885330784
62.18000000000436         0.250453586622745
62.20000000000439         0.23900433281455044
62.22000000000437         0.23086170979265674
62.24000000000437         0.2256260730285062
62.2600000000044          0.2230472967250196
62.2800000000044          0.22300478320391068
62.300000000004424        0.2254976921683368
62.320000000004406        0.23064591231897777
62.34000000000444         0.23869623165829898