% Model:              Untitled.mph
% Version:            COMSOL 5.6.0.280
% Date:               Oct 5 2021, 10:17
% Dimension:          1
% Nodes:              1015
% Expressions:        1
% Description:        线图
% cln1x                   Height
49.2                      0.33203862612001217
49.21999999999993         0.331610245995554
49.239999999999924        0.3363461483335963
49.25999999999991         0.34662435664358415
49.27999999999991         0.3631544418111101
49.2999999999999          0.38700543933819953
49.319999999999894        0.4195681718474401
49.33999999999989         0.4622103403550231
49.35999999999989         0.5148953864485378
49.379999999999875        0.5728135919610525
49.399999999999885        0.6249985257450603
49.41999999999987         0.6629114808502585
49.439999999999856        0.6831994256965451
49.459999999999845        0.6890272474796357
49.47999999999983         0.682775563357464
49.49999999999984         0.661921587625295
49.519999999999825        0.6231871993864838
49.53999999999982         0.569838528023091
49.55999999999982         0.5103796858105291
49.57999999999979         0.4558247755634793
49.5999999999998          0.41105135971994206
49.61999999999979         0.3761410770984099
49.63999999999978         0.34974211339630856
49.65999999999978         0.3304546414239251
49.67999999999978         0.317180098946889
49.69999999999978         0.3091612469551833
49.71999999999976         0.305954490589816
49.73999999999975         0.30740274755297387
49.759999999999735        0.3136221996349789
49.77999999999974         0.3250133339456117
49.799999999999734        0.34228682040460806
49.819999999999716        0.3664902979200211
49.83999999999971         0.39897100853832823
49.85999999999971         0.4410403116602058
49.8799999999997          0.49263392886415036
49.89999999999969         0.5490521185319901
49.91999999999969         0.5996738362929582
49.939999999999685        0.63635219978752
49.959999999999695        0.6559428201226817
49.97999999999967         0.6616069888449029
49.99999999999967         0.6557039441161663
50.01999999999966         0.6358190971639214
50.03999999999965         0.5987384528108172
50.05999999999965         0.5475735170291635
50.07999999999963         0.4904544269241119
50.09999999999962         0.438027316570298
50.11999999999962         0.39502609747908624
50.13999999999961         0.3615382514522806
50.159999999999606        0.3362632381819852
50.1799999999996          0.3178543675061462
50.19999999999959         0.30525613339034774
50.21999999999959         0.2977426333823502
50.239999999999576        0.2948908080242417
50.259999999999586        0.29655358499075535
50.27999999999955         0.3028512408806306
50.29999999999957         0.31417422082698754
50.31999999999955         0.33121652666551543
50.33999999999955         0.3549974983591197
50.359999999999545        0.3868258073802499
50.379999999999534        0.42797175030445456
50.39999999999952         0.4783594802889471
50.41999999999952         0.533387098574394
50.43999999999951         0.582693305331274
50.459999999999496        0.6183810786260194
50.479999999999514        0.6374197935784273
50.499999999999496        0.6429275888711273
50.51999999999951         0.6372208109457596
50.53999999999949         0.6178810145873329
50.55999999999949         0.5819576831514961
50.579999999999465        0.5322606268335099
50.59999999999947         0.47674240758997455
50.61999999999946         0.4257779371592832
50.63999999999944         0.3839891462525659
50.659999999999435        0.351465701630563
50.67999999999942         0.32694353198519344
50.699999999999406        0.30911359337942257
50.71999999999941         0.2969505372631141
50.73999999999941         0.28975008272038766
50.759999999999394        0.28710298607138396
50.77999999999939         0.2888689778029439
50.799999999999386        0.29516676400965414
50.81999999999938         0.30638319627210125
50.83999999999938         0.323200229846388
50.859999999999374        0.34661037388331967
50.879999999999356        0.3778955771824484
50.89999999999936         0.41829591389855575
50.91999999999935         0.4677293653560979
50.939999999999344        0.5216745111711731
50.959999999999354        0.5699731459265164
50.97999999999935         0.604911055809476
50.99999999999935         0.6235374675456966
51.01999999999934         0.6289281807813376
51.03999999999933         0.6233623420824074
51.05999999999933         0.6044716468562678
51.07999999999932         0.5692165959721749
51.09999999999929         0.5207518968804417
51.119999999999294        0.4664360477119794
51.139999999999276        0.41657187436010673
51.15999999999928         0.37569277689494757
51.17999999999926         0.34388926536796266
51.19999999999925         0.3199248722441982
51.219999999999224        0.3025190425268781
51.23999999999922         0.2906691305679988
51.25999999999921         0.2836869935548644
51.27999999999921         0.28117352775235943
51.29999999999921         0.2829932064192872
51.3199999999992          0.2892643700874025
51.33999999999919         0.30036829799786446
51.35999999999918         0.3169744391042732
51.37999999999918         0.34006180805809083
51.399999999999174        0.37088553961962295
51.41999999999919         0.410663401138821
51.43999999999917         0.4593099422405255
51.45999999999917         0.5123715077455542
51.479999999999166        0.5598557316056386
51.49999999999916         0.59419178084644
51.51999999999916         0.6124898254735022
51.53999999999914         0.6177872490032782
51.55999999999914         0.6123311614171453
51.57999999999914         0.5937935471641758
51.59999999999913         0.5591782801836274
51.61999999999912         0.5115765143404497
51.639999999999105        0.45831183245427254
51.65999999999908         0.4092369788012933
51.679999999999076        0.36908239534996923
51.69999999999906         0.3378505071231939
51.71999999999908         0.31432684234128533
51.73999999999906         0.2972535579219816
51.75999999999906         0.28564605016946637
51.779999999999056        0.2788289267876306
51.799999999999045        0.27641099733273655
51.819999999999034        0.2782602883456866
51.83999999999902         0.2844945585265598
51.85999999999902         0.29549027853069487
51.879999999999015        0.31190748292718434
51.899999999999           0.33471564217987043
51.919999999999           0.3651364438687784
51.939999999999           0.40438298737775297
51.959999999998985        0.452362984296822
51.97999999999898         0.5046808126572013
51.99999999999898         0.551483521387431
52.019999999998994        0.5853180158550066
52.03999999999898         0.603343639466462
52.05999999999898         0.6085637136967524
52.079999999998975        0.6031976614968444
52.099999999998964        0.58495100439633
52.11999999999895         0.5508647928716014
52.139999999998935        0.5039815553794228
52.15999999999893         0.45151152426036584
52.17999999999892         0.4032295829600443
52.199999999998894        0.36361527019835516
52.21999999999888         0.3328583281406954
52.23999999999888         0.3097004286687805
52.25999999999886         0.2929025276288448
52.27999999999887         0.2814949494816781
52.29999999999886         0.2748128383817405
52.31999999999887         0.27247152398057584
52.33999999999885         0.27434193053804906
52.35999999999885         0.28054127781381116
52.37999999999884         0.29144198975267616
52.39999999999883         0.307696233285038
52.41999999999882         0.33026143152741727
52.43999999999881         0.3603669812723078
52.45999999999881         0.39920103776119975
52.4799999999988          0.4465567927614093
52.499999999998806        0.49824768641300804
52.51999999999881         0.5444770196041961
52.53999999999882         0.5778901828906098
52.55999999999881         0.5956872787571699
52.57999999999881         0.6008424341402571
52.59999999999881         0.5955514187184562
52.61999999999878         0.5775478508292428
52.639999999998786        0.5439044523574859
52.65999999999877         0.49762322756993205
52.67999999999874         0.44581981454979946
52.69999999999873         0.3981506339383309
52.71999999999871         0.35906621799561417
52.739999999998716        0.32868451416587596
52.75999999999871         0.30583353720956263
52.7799999999987          0.2892665166372174
52.7999999999987          0.27802627305884897
52.81999999999868         0.27145676695478904
52.839999999998675        0.2691787777616916
52.859999999998664        0.2710656420715986
52.87999999999867         0.2772341093042959
52.89999999999865         0.28805319447391864
52.91999999999867         0.30416846812729426
52.93999999999864         0.32652726453604997
52.959999999998644        0.35634569833713464
52.97999999999864         0.39479859121057004
52.999999999998614        0.44176423191253034
53.019999999998646        0.49284116763234576
53.03999999999865         0.5385869791229015
53.05999999999862         0.5716450266904288
53.07999999999864         0.5892495249135584
53.099999999998644        0.5943498230873873
53.119999999998626        0.5891215094906491
53.13999999999862         0.5713217679446935
53.15999999999861         0.5380502631410408
53.1799999999986          0.49227498996466174
53.199999999998575        0.44103220529519166
53.219999999998564        0.39387834055258375
53.23999999999854         0.35521926863019815
53.25999999999853         0.3251772454762293
53.27999999999852         0.3025773178104043
53.29999999999852         0.2862042066247362
53.31999999999851         0.2751028230150127
53.339999999998504        0.2686257032264298
53.35999999999849         0.26639816250713116
53.37999999999848         0.26829550318016543
53.39999999999848         0.2744339965713855
53.419999999998474        0.28517968308188696
53.43999999999846         0.3011724539241253
53.459999999998466        0.3233510139992519
53.47999999999847         0.3529201355888819
53.49999999999845         0.3910432936000896
53.519999999998454        0.4375983800961321
53.539999999998464        0.4882161281556008
53.55999999999846         0.5335519218854409
53.57999999999846         0.5663060123953064
53.599999999998474        0.5837461535049392
53.61999999999846         0.5887997460732497
53.63999999999846         0.5836247536777447
53.65999999999847         0.5659985614861766
53.67999999999844         0.533044275128798
53.69999999999843         0.48770092319353
53.719999999998386        0.4369371702184331
53.73999999999839         0.3902235964265859
53.75999999999837         0.3519275991213387
53.77999999999837         0.32217090662335324
53.799999999998334        0.29978954791073625
53.819999999998345        0.2835773994977263
53.83999999999832         0.272594994540576
53.85999999999833         0.26619454506242046
53.879999999998326        0.2640073947015583
53.8999999999983          0.2659104620130437
53.9199999999983          0.2720195237842408
53.9399999999983          0.2826979633493903
53.95999999999828         0.29858066599807864
53.97999999999828         0.3205987753796256
53.99999999999827         0.3499471693183474
54.01999999999827         0.38777945865678953
54.03999999999829         0.4339734284661594
54.05999999999828         0.48419280299284073
54.07999999999829         0.5290374647218784
54.09999999999829         0.5615952393219997
54.119999999998306        0.5789547927548472
54.139999999998295        0.5839686392667596
54.15999999999829         0.5788405680594008
54.17999999999829         0.5613657225843026
54.19999999999827         0.5286876660463734
54.21999999999824         0.48372022128496744
54.23999999999822         0.4333730885654745
54.2599999999982          0.3870421750318
54.27999999999818         0.34906145572760705
54.29999999999818         0.31955221838328096
54.31999999999817         0.29736005209325145
54.33999999999815         0.28128871571209946
54.359999999998145        0.27040483503631807
54.379999999998155        0.26407110227095587
54.39999999999813         0.2619171286772832
54.41999999999813         0.2638228729132809
54.43999999999812         0.2699036362977211
54.45999999999811         0.28052043459499076
54.479999999998114        0.29630373029630824
54.499999999998096        0.3181780136016779
54.51999999999809         0.347329495175609
54.539999999998095        0.3849031848914126
54.55999999999809         0.43077679071295744
54.57999999999809         0.4806428264415716
54.599999999998126        0.5251667057902216
54.61999999999813         0.5574888949480145
54.63999999999813         0.5747200954085231
54.65999999999812         0.5796985854695199
54.67999999999811         0.5746110686047721
54.69999999999811         0.5572690326711645
54.71999999999809         0.5248342869830093
54.73999999999806         0.4801983815811325
54.75999999999804         0.4302190933546352
54.77999999999802         0.38422596257591407
54.799999999998           0.34652316581049564
54.819999999998           0.31723157642698074
54.839999999997985        0.2952052448606879
54.859999999997974        0.27925667510656177
54.87999999999797         0.2684593731365771
54.89999999999795         0.2621799558839405
54.91999999999795         0.26005341545500965
54.93999999999795         0.26195833097193216
54.95999999999793         0.26801034583404265
54.97999999999795         0.2785682823325797
54.99999999999792         0.2942585638712117
55.01999999999792         0.31599963418645616
55.03999999999791         0.3449698535443687
55.05999999999792         0.38230649562861047
55.0799999999979          0.4278873593211009
55.09999999999792         0.4774314081526242
55.11999999999795         0.521663764547638
55.13999999999796         0.5537722514986828
55.15999999999795         0.5708881249288592
55.17999999999795         0.5758339037079706
55.19999999999795         0.5707829308927634
55.219999999997945        0.553560804277391
55.23999999999791         0.5213458706042745
55.25999999999789         0.47700952181068557
55.27999999999787         0.4273625900353918
55.299999999997844        0.38167445912570785
55.319999999997826        0.34422229252310843
55.33999999999783         0.31512657733971067
55.359999999997804        0.2932490142984503
55.3799999999978          0.2774100070158375
55.399999999997796        0.26668927135349
55.41999999999778         0.2604577289976041
55.43999999999777         0.2583529122690009
55.45999999999777         0.26025519189674856
55.47999999999777         0.2662771791691991
55.499999999997755        0.27677812189222534
55.51999999999775         0.2923798420456513
55.53999999999775         0.3139951670840387
55.55999999999773         0.3427951817113529
55.57999999999774         0.3799100224784313
55.59999999999773         0.42521772015459175
55.619999999997745        0.47446211985589054
55.639999999997755        0.5184239978266495
55.65999999999777         0.5503346382516137
55.6799999999978          0.5673441131670814
55.699999999997765        0.5722598710808895
55.719999999997775        0.5672429245716983
55.73999999999777         0.5501317741400081
55.75999999999774         0.518120055407706
55.77999999999772         0.4740604832035097
55.7999999999977          0.42472039832877007
55.81999999999766         0.3793136384452174
55.83999999999766         0.34209245270772887
55.85999999999764         0.31317697150528545
55.87999999999764         0.291435949990194
55.899999999997625        0.27569707044207903
55.91999999999762         0.2650457602046476
55.9399999999976          0.25885689600254924
55.959999999997606        0.25677034863052767
55.979999999997595        0.25866733137542397
55.99999999999759         0.26466153687803645
56.01999999999758         0.2751052953412652
56.039999999997576        0.29062179430998675
56.05999999999757         0.312116945710103
56.07999999999756         0.3407550173791936
56.09999999999758         0.37765947909832315
56.11999999999755         0.42270862828997247
56.13999999999757         0.4716696966350397
56.15999999999758         0.5153757630251228
56.17999999999758         0.5470991884439255
56.19999999999759         0.5640077465090723
56.2199999999976          0.5688947684829965
56.2399999999976          0.5639103890089976
56.25999999999758         0.5469620671206407
56.279999999997585        0.5152078175471758
56.29999999999754         0.4712825700112559
56.3199999999975          0.42223105437771014
56.33999999999749         0.3770888077949557
56.35999999999746         0.34008456538337983
56.379999999997445        0.3113381059547214
56.39999999999746         0.2897248221617976
56.419999999997444        0.27407923988828675
56.43999999999745         0.26349214581374153
56.45999999999743         0.2573421141100041
56.47999999999742         0.25527119581019375
56.499999999997414        0.2571613895238633
56.51999999999742         0.2631258055222846
56.5399999999974          0.2735169585023695
56.559999999997395        0.2889493603051134
56.57999999999739         0.310326800187962
56.59999999999738         0.3388083507214515
56.619999999997376        0.37550997422292676
56.63999999999738         0.4203102961634262
56.6599999999974          0.4689991237333065
56.679999999997406        0.5124597905942527
56.69999999999743         0.5440038176037081
56.71999999999744         0.5608158079855141
56.73999999999744         0.5656753439977402
56.759999999997454        0.5607212122746597
56.77999999999741         0.5438720804123001
56.79999999999741         0.51230013195314
56.819999999997364        0.4686294110153002
56.83999999999734         0.4198490125505888
56.85999999999731         0.37495990666929335
56.87999999999729         0.33816326477981296
56.89999999999727         0.3095785080672653
56.919999999997266        0.2880873802143894
56.93999999999725         0.2725309572521866
56.95999999999725         0.2620051526814703
56.97999999999725         0.25589207292549737
56.99999999999724         0.2538358476060246
57.01999999999723         0.255719234091314
57.03999999999723         0.26165480799201457
57.05999999999722         0.2719931965701719
57.079999999997206        0.2873456063681033
57.0999999999972          0.30860640478253615
57.1199999999972          0.33694209183251744
57.13999999999719         0.3734488628372387
57.15999999999719         0.4180102331646496
57.17999999999721         0.46643768200928515
57.19999999999723         0.509662768748878
57.219999999997256        0.5410345898312858
57.239999999997266        0.5577538887302138
57.25999999999726         0.562587045204386
57.27999999999726         0.557661951003448
57.29999999999725         0.540908019247919
57.31999999999723         0.509511002925948
57.33999999999719         0.46607973319168844
57.35999999999715         0.4174837567001233
57.379999999997125        0.37286053959417004
57.39999999999711         0.3363205747074659
57.41999999999709         0.3078909911727792
57.43999999999708         0.2865170888881193
57.45999999999707         0.27104622137389844
57.47999999999708         0.26057921540201257
57.49999999999706         0.2545015600481119
57.519999999997054        0.25245936964240895
57.53999999999705         0.25433612140237966
57.55999999999703         0.26024389158714023
57.579999999997035        0.2705315128749581
57.59999999999704         0.28580698991943676
57.61999999999701         0.30696001476225643
57.63999999999703         0.335129052269349
57.659999999997           0.37147032564561533
57.679999999997015        0.41580187829550525
57.69999999999704         0.4639781931238754
57.71999999999706         0.5069774196148452
57.73999999999709         0.538184441508753
57.759999999997085        0.5548153793243249
57.779999999997095        0.5596236271582536
57.799999999997084        0.5547265936503849
57.819999999997066        0.538064093599836
57.83999999999705         0.5068349503668753
57.85999999999703         0.46363342941745067
57.87999999999698         0.41529202225849554
57.89999999999696         0.3709017074716721
57.91999999999693         0.3345306587832092
57.93999999999692         0.30627181533839576
57.9599999999969          0.285010324208207
57.9799999999969          0.2696214578674901
57.99999999999689         0.2592107544871817
58.0199999999969          0.2531669456057867
58.03999999999688         0.25113804518360694
58.05999999999687         0.25300821379559224
58.079999999996865        0.2588890488636644
58.09999999999686         0.2691276887387113
58.11999999999686         0.2843290819371745
58.13999999999685         0.3053784278654733
58.15999999999685         0.3334084585799971
58.17999999999683         0.3695125336448281
58.19999999999685         0.41360052436413725
58.21999999999686         0.46161520601861306
58.23999999999687         0.5043967004307784
58.25999999999689         0.5354444896690235
58.2799999999969          0.5519895812131652
58.299999999996906        0.5567732043068818
58.31999999999691         0.5519026353324988
58.3399999999969          0.5353275784747301
58.35999999999687         0.5042595192792945
58.37999999999685         0.46127876648298566
58.39999999999681         0.41318225730208424
58.41999999999679         0.36901605917150976
58.43999999999676         0.3328286714046933
58.459999999996754        0.3047082843341616
58.479999999996714        0.2835592481865706
58.49999999999673         0.2682489860437735
58.51999999999671         0.25789208460954915
58.53999999999671         0.25188039075264046
58.5599999999967          0.24986373563773107
58.579999999996694        0.25172691956297927
58.59999999999669         0.2575810548328433
58.61999999999667         0.26777163346978006
58.63999999999666         0.28290065794630903
58.659999999996664        0.30384895577120624
58.67999999999666         0.3317436724405028
58.69999999999666         0.3676727571082267
58.71999999999667         0.4115463039960282
58.73999999999668         0.45933125836697153
58.75999999999669         0.5018968714446153
58.77999999999672         0.5327907779759575
58.79999999999672         0.5492532145714141
58.81999999999676         0.5540132554683412
58.83999999999674         0.5491682452378438
58.85999999999673         0.5326775554534677
58.879999999996706        0.5017651715917322
58.89999999999668         0.4589980017246091
58.919999999996634        0.4111387000633612
58.939999999996594        0.3671896571775446
58.959999999996576        0.3311801844539791
58.97999999999656         0.30319824830391856
58.999999999996554        0.2821547454749094
59.019999999996536        0.26692140842165013
59.03999999999652         0.2566143401467071
59.059999999996535        0.25063349492810716
59.07999999999652         0.24862839087541483
59.09999999999652         0.25048443856877206
59.1199999999965          0.2563122640528159
59.13999999999649         0.26645574758529306
59.15999999999649         0.28151404046206174
59.17999999999649         0.302363731867581
59.19999999999647         0.33012651600140497
59.21999999999648         0.36588506914192126
59.239999999996485        0.40954973334113487
59.259999999996516        0.457106203006778
59.27999999999654         0.49958970203380504
59.29999999999656         0.530211450930066
59.319999999996575        0.546593869669758
59.33999999999659         0.5513312344623164
59.35999999999657         0.5465112103361575
59.379999999996585        0.530102613386527
59.39999999999653         0.49934160195409105
59.41999999999649         0.4567820851009632
59.43999999999646         0.40915336981515005
59.45999999999642         0.365415415329909
59.479999999996394        0.3295789018549762
59.49999999999639         0.3017315786100579
59.519999999996365        0.2807896115704588
59.53999999999636         0.2656301670394554
59.55999999999636         0.25537518909462176
59.57999999999635         0.24942280737753547
59.59999999999634         0.24742898874897576
59.61999999999635         0.2492781590508549
59.63999999999632         0.2550804696558111
59.65999999999634         0.26517822970480315
59.67999999999632         0.28016782679340385
59.69999999999632         0.3009217664974379
59.719999999996304        0.32855646010934686
59.739999999996314        0.36414945847963576
59.759999999996325        0.40761133859223275
59.77999999999634         0.4549459680347523
59.79999999999638         0.49722990922886773
59.8199999999964          0.5277648449777673
59.83999999999641         0.5440125557683674
59.85999999999641         0.5487270246875702
59.87999999999642         0.5439312114253587
59.89999999999641         0.5276022768703563
59.91999999999637         0.49698824083601345
59.93999999999633         0.4546304128387895
59.95999999999629         0.4072257358863393
59.97999999999626         0.36369291462537107
59.99999999999624         0.32802450200645156
60.01999999999622         0.3003080291644033
60.03999999999621         0.27946478013439324
60.0599999999962          0.2643772007763426
60.07999999999619         0.25417137113625754
60.099999999996186        0.24824905890443147
60.11999999999618         0.24626550798704339
60.139999999996164        0.2481081003095428
60.15999999999617         0.2538857380858249
60.17999999999618         0.263939204038026
60.19999999999615         0.2788622025149519
60.219999999996155        0.2995232970153451
60.239999999996144        0.32703380575796603
60.259999999996154        0.36246631111526595
60.27999999999616         0.4057316036472973
60.29999999999619         0.4528511175785723
60.319999999996234        0.4949414378048739
60.339999999996245        0.5253357907746171
60.35999999999626         0.5415081937533571
60.37999999999626         0.5462011328964647
60.39999999999626         0.5414288153349393
60.41999999999627         0.525177141991127
60.439999999996225        0.4947056961582142
60.459999999996185        0.45254357009154184
60.47999999999613         0.40535631301400293
60.4999999999961          0.36202259032880946
60.51999999999608         0.326517355322475
60.53999999999606         0.29892792267852036
60.559999999996045        0.2781805402717329
60.57999999999605         0.26316277551546235
60.599999999996044        0.25300472142678615
60.619999999996026        0.2471109062125799
60.63999999999602         0.24513817982024796
60.659999999996           0.24697370172124508
60.679999999996           0.2527283046937907
60.69999999999602         0.26273891100755226
60.71999999999599         0.2775974117613003
60.739999999996           0.2981685487315009
60.75999999999599         0.32555872779947065
60.77999999999599         0.36083572550357534
60.799999999996004        0.40391053818706024
60.81999999999602         0.45082165198975355
60.83999999999608         0.4927244723649266
60.85999999999609         0.522982744999763
60.879999999996116        0.5390823026654316
60.89999999999611         0.543754461342157
60.9199999999961          0.5390039824420068
60.93999999999608         0.5228277800848412
60.95999999999607         0.49249434912056317
60.97999999999602         0.4505217920861348
60.99999999999598         0.4035453130079844
61.019999999995946        0.3604046762042448
61.03999999999592         0.32505770415310825
61.05999999999591         0.2975914897683897
61.079999999995884        0.2769370969886197
61.09999999999588         0.2619870623415067
61.11999999999587         0.25187537144135563
61.139999999995865        0.24600923004283687
61.15999999999586         0.24404705011183436
61.17999999999585         0.24587653726195347
61.19999999999585         0.25160652430903024
61.21999999999585         0.2615771940696774
61.23999999999584         0.27637321084541017
61.25999999999584         0.2968571622157171
61.27999999999583         0.32413069275908757
61.29999999999584         0.3592569358412701
61.319999999995844        0.40214711072454246
61.33999999999587         0.44885636177045496
61.35999999999591         0.4905778726893977
61.379999999995924        0.5207047590578422
61.39999999999594         0.5367341765103434
61.419999999995945        0.5413863822047095
61.43999999999595         0.5366576771164044
61.45999999999593         0.5204967047570721
61.479999999995904        0.4902329135624112
61.49999999999586         0.4485640871448432
61.51999999999582         0.4017918746925512
61.53999999999581         0.3588385147110843
61.55999999999577         0.3236450662606958
61.57999999999574         0.29629837983211577
61.599999999995745        0.27573419771041713
61.61999999999572         0.2608498836897284
61.63999999999572         0.25078320399337756
61.659999999995705        0.2449439658340734
61.679999999995694        0.2429920998808134
61.6999999999957          0.24481584553166644
61.71999999999568         0.25052362340683926
61.739999999995675        0.2604521913537697
61.75999999999567         0.2751898602418142
61.77999999999567         0.29558952927701404
61.79999999999567         0.32275026347149777
61.81999999999567         0.3577307278146458
61.839999999995676        0.40044237624780576
61.85999999999571         0.4469564824865108
61.87999999999576         0.48850278665867786
61.899999999995785        0.5185027663598376
61.91999999999581         0.5344644978386649
61.939999999995806        0.5390975036844087
61.959999999995794        0.5343899008982863
61.97999999999578         0.5182987359627509
61.99999999999575         0.488164100168506
62.01999999999572         0.44666706445942717
62.039999999995665        0.40009740387725623
62.059999999995625        0.35732512920221143
62.07999999999561         0.3222801381170618
62.09999999999558         0.2950490494143045
62.119999999995585        0.2745721254138625
62.13999999999557         0.2597513870981876
62.159999999995556        0.24972825009158278
62.17999999999555         0.2439150401381427
62.199999999995555        0.24197316298998592
62.21999999999555         0.24379137565529044
62.23999999999553         0.24947770012576573
62.25999999999553         0.2593675522334968
62.279999999995525        0.2740457750432169
62.299999999995514        0.2943694413983472
62.31999999999551         0.32141678876507057