% Model:              Untitled.mph
% Version:            COMSOL 5.6.0.280
% Date:               Oct 5 2021, 10:18
% Dimension:          1
% Nodes:              994
% Expressions:        1
% Description:        线图
% cln1x                   Height
49.24999999999999         0.299025062054248
49.260000000000076        0.2983296758837076
49.280000000000086        0.2992911432927055
49.300000000000104        0.3034918613625117
49.32000000000011         0.31120216983376575
49.34000000000012         0.32288153675394377
49.36000000000011         0.3392158586031322
49.38000000000013         0.3611661309236072
49.400000000000134        0.3900098887309916
49.420000000000144        0.427304362893947
49.440000000000154        0.474535207507436
49.460000000000164        0.5318088667421922
49.48000000000015         0.5938727093642531
49.50000000000016         0.6495541802771881
49.520000000000174        0.6901990739743994
49.540000000000205        0.7121113718838519
49.560000000000194        0.7184532233054323
49.58000000000019         0.711779217032027
49.60000000000019         0.689511068232749
49.62000000000021         0.6483473313459472
49.6400000000002          0.5917073229546657
49.66000000000021         0.5285028612183634
49.680000000000234        0.47009296731704714
49.70000000000021         0.4214683585547175
49.72000000000022         0.38266632760506925
49.74000000000024         0.3522155351100308
49.760000000000254        0.3285609473544698
49.78000000000025         0.3104227691687828
49.80000000000025         0.2968236539106623
49.82000000000027         0.28705324027988216
49.840000000000266        0.2806198348815634
49.86000000000028         0.2772127592307214
49.88000000000028         0.27667779777414675
49.90000000000029         0.27900516120462243
49.92000000000031         0.2843296145955138
49.940000000000296        0.2929422515742176
49.96000000000031         0.30530993321689737
49.98000000000032         0.32210791216614154
50.00000000000033         0.3442775299500359
50.02000000000034         0.3730766871256358
50.04000000000033         0.41002703322894674
50.060000000000365        0.45657305111039476
50.08000000000035         0.5126448335144873
50.10000000000036         0.5732463075020877
50.12000000000035         0.6273954435997656
50.140000000000356        0.6668054417643193
50.160000000000366        0.6879770296524553
50.18000000000036         0.6941180930384854
50.20000000000038         0.6877754069096718
50.22000000000038         0.6664353175245351
50.240000000000386        0.6267942852378868
50.260000000000396        0.5721045161073876
50.280000000000406        0.5110186190698642
50.300000000000416        0.4543831726338655
50.320000000000405        0.4072172173038599
50.34000000000043         0.36961009809381323
50.36000000000043         0.34012955457471533
50.38000000000044         0.3172582981884651
50.400000000000446        0.299748605797812
50.42000000000046         0.2866536578666679
50.44000000000047         0.27728597571402563
50.46000000000046         0.27117047984607306
50.48000000000047         0.26800795629909696
50.500000000000476        0.2676512414458585
50.520000000000486        0.2700934920833605
50.54000000000049         0.2754678381339325
50.56000000000051         0.28405667068734664
50.58000000000051         0.2963207640363222
50.60000000000052         0.3129269543501753
50.62000000000053         0.33479902313332943
50.640000000000526        0.36315770847654777
50.66000000000054         0.39949062611766367
50.68000000000056         0.44520494539198546
50.70000000000054         0.5002151415184564
50.72000000000055         0.559588854174385
50.740000000000556        0.6125421185236227
50.76000000000056         0.6510232633850038
50.78000000000056         0.6716488470137189
50.800000000000566        0.677628238861977
50.82000000000058         0.6714810994580531
50.84000000000057         0.6506654106991694
50.860000000000575        0.6119543565373079
50.88000000000058         0.5587225029381166
50.9000000000006          0.4990136788548753
50.92000000000062         0.4436190381323521
50.94000000000062         0.39748495839678266
50.96000000000063         0.3607082203789533
50.980000000000636        0.33188858313343017
51.00000000000064         0.3095417214270217
51.02000000000065         0.2924473120312938
51.04000000000065         0.27967966763325014
51.06000000000068         0.2705669878604125
51.080000000000666        0.26464541108345085
51.10000000000067         0.26162349127566453
51.12000000000067         0.2613577656671246
51.14000000000069         0.26384360712336735
51.16000000000069         0.2692130415839121
51.1800000000007          0.2777462192390934
51.20000000000071         0.289894079080834
51.22000000000071         0.30631341804059714
51.24000000000071         0.3279121222773437
51.26000000000073         0.35588943139371115
51.28000000000072         0.3917061107885363
51.30000000000074         0.4367418999154389
51.32000000000075         0.4909022390007043
51.34000000000075         0.5493108542824033
51.36000000000075         0.6013423736980295
51.380000000000734        0.6391889605178277
51.40000000000074         0.6593356098880855
51.42000000000074         0.665191469471642
51.440000000000765        0.6591820436420034
51.46000000000077         0.6387980502724907
51.48000000000077         0.6008319103870702
51.50000000000078         0.5485813600990647
51.52000000000079         0.48992132720349224
51.540000000000816        0.4354784352014772
51.56000000000083         0.39013539207991493
51.58000000000084         0.35399320567533066
51.60000000000083         0.32567648195865023
51.62000000000085         0.3037265426662367
51.64000000000084         0.2869442774051823
51.66000000000085         0.2744219999378212
51.68000000000085         0.2654958268183821
51.70000000000087         0.25971291965902954
51.72000000000089         0.25678728383770544
51.74000000000088         0.2565794314653251
51.760000000000886        0.25908521744743285
51.7800000000009          0.26443562384462377
51.800000000000885        0.2729074869366605
51.82000000000092         0.2849458206907343
51.840000000000906        0.30119835651609933
51.860000000000916        0.32256008791518903
51.880000000000926        0.35021286557821346
51.90000000000094         0.38559578365835906
51.92000000000093         0.4299952595986477
51.94000000000094         0.48342751115999
51.960000000000946        0.5411536726708321
51.98000000000094         0.5925951446583102
52.00000000000094         0.62974146415591
52.020000000000934        0.649577769993478
52.04000000000095         0.6553435670604889
52.06000000000094         0.649440592385483
52.08000000000096         0.6293896335197661
52.10000000000098         0.5920061101848708
52.12000000000098         0.5405298563758258
52.140000000000995        0.4827061722124375
52.160000000001           0.4290256696697936
52.18000000000104         0.3843161545673371
52.20000000000103         0.34867453735151915
52.22000000000105         0.3207665621899133
52.24000000000106         0.2991339968965048
52.26000000000104         0.28259885563675735
52.28000000000106         0.27026631996762973
52.30000000000107         0.261486686335634
52.32000000000107         0.25581152217080105
52.34000000000109         0.2529593474761788
52.36000000000108         0.2527932401373774
52.380000000001104        0.2553098601997444
52.40000000000111         0.2606392749407244
52.42000000000112         0.2690555812740433
52.44000000000114         0.28099895799334557
52.46000000000112         0.297109759458059
52.48000000000113         0.31827344716099343
52.50000000000115         0.34564842596122497
52.52000000000115         0.38065069574349364
52.54000000000114         0.42461392206883136
52.560000000001146        0.4774714495848514
52.58000000000116         0.5345551047017469
52.600000000001124        0.5853966132070254
52.62000000000113         0.6220930318107345
52.64000000000112         0.6416760538732147
52.66000000000113         0.6473655929132732
52.68000000000113         0.6415416665337296
52.700000000001125        0.6217499283653064
52.72000000000114         0.5848303968615783
52.74000000000116         0.5339821695263866
52.760000000001185        0.47674022896978024
52.7800000000012          0.42371312388579624
52.80000000000121         0.3795672119922583
52.82000000000125         0.34437053796279754
52.84000000000124         0.3167911912024619
52.86000000000126         0.2954167444669009
52.880000000001246        0.2790833568994047
52.90000000000125         0.266907007278297
52.92000000000126         0.25824591801135777
52.94000000000126         0.252657252438237
52.96000000000128         0.24986322562800953
52.98000000000128         0.24972899852548044
53.00000000000127         0.25225185801429584
53.02000000000129         0.25756212992598015
53.0400000000013          0.2659301094519702
53.06000000000132         0.27779242581745606
53.08000000000131         0.29378285436541335
53.10000000000133         0.31477574778471
53.120000000001326        0.34192327187990246
53.14000000000133         0.37662440136765535
53.16000000000133         0.42019846081564205
53.180000000001336        0.47257613504608775
53.20000000000134         0.5291267544461105
53.22000000000133         0.5794762671274811
53.24000000000134         0.6158076006913681
53.26000000000132         0.635189317922189
53.28000000000132         0.6408224563093281
53.300000000001326        0.6350707124779226
53.32000000000134         0.615567069614665
53.34000000000136         0.5791099996331597
53.360000000001385        0.5286329328834196
53.38000000000139         0.4719500503003972
53.400000000001405        0.41943214326089406
53.420000000001416        0.3757090431644379
53.440000000001426        0.3408505655861237
53.460000000001436        0.3135381136031269
53.48000000000145         0.2923730558259929
53.500000000001464        0.27620293790869127
53.52000000000147         0.26415243394901017
53.54000000000147         0.25558614580234135
53.56000000000147         0.2500651762885743
53.58000000000149         0.24731621941302698
53.60000000000149         0.24720508770810076
53.62000000000149         0.24972957453127922
53.6400000000015          0.2550182708263793
53.66000000000151         0.26334099723879256
53.680000000001506        0.2751303775895763
53.700000000001516        0.2910150245768539
53.720000000001534        0.31186200041437223
53.74000000000154         0.33881368630987646
53.76000000000154         0.37325698029743803
53.78000000000154         0.4164992813987064
53.80000000000154         0.4684692500592851
53.82000000000152         0.5245680081359859
53.840000000001524        0.5743566835336784
53.860000000001506        0.6104546448419401
53.880000000001495        0.6297332709497536
53.90000000000151         0.6353176854909092
53.920000000001515        0.6296213916072324
53.94000000000152         0.6102960036119304
53.96000000000155         0.5741587580491949
53.98000000000156         0.5241138480915623
54.000000000001606        0.4679041194351039
54.020000000001595        0.4158193157645419
54.040000000001605        0.3724557324678215
54.060000000001615        0.3378842446014842
54.080000000001625        0.31079770167764537
54.10000000000166         0.28980933643406814
54.120000000001646        0.2737741585445007
54.14000000000165         0.2618295506977493
54.16000000000166         0.253342559057634
54.18000000000168         0.2478785601561146
54.20000000000168         0.2451652403143778
54.22000000000169         0.24507082512911038
54.24000000000169         0.24759344056906546
54.260000000001696        0.25286099101748294
54.28000000000169         0.26114152150559883
54.30000000000171         0.2728646322325851
54.3200000000017          0.28865441345081877
54.340000000001744        0.30937157202143367
54.36000000000174         0.3361499666411459
54.380000000001736        0.37039370012778283
54.40000000000174         0.4133859817530057
54.42000000000174         0.46502444893541817
54.44000000000174         0.5206297666710615
54.4600000000017          0.5700657282915461
54.48000000000171         0.6059002056344158
54.50000000000172         0.625035363958728
54.52000000000173         0.6305795346089792
54.54000000000171         0.6249315053369441
54.560000000001736        0.6057587255144746
54.58000000000174         0.569895836571917
54.600000000001764        0.5202223758512738
54.620000000001816        0.4644202988708569
54.640000000001805        0.4127088559715631
54.66000000000182         0.3696826728767805
54.680000000001826        0.335336849727256
54.700000000001836        0.30843684325708487
54.72000000000186         0.2875980823607891
54.740000000001864        0.2716824201138413
54.76000000000186         0.2598269385163327
54.780000000001856        0.2514059263438438
54.800000000001866        0.2459880421967497
54.82000000000188         0.2433030664780165
54.84000000000189         0.2432203354832477
54.860000000001904        0.24573821578232286
54.8800000000019          0.2509839754995144
54.9000000000019          0.2592240739088598
54.920000000001934        0.2708854366521529
54.940000000001916        0.28658565123339574
54.960000000001955        0.30718654059959205
54.98000000000194         0.3338161438022409
55.00000000000195         0.3678497219885764
55.020000000001936        0.41058194296553385
55.040000000001946        0.46190287140743935
55.060000000001935        0.517158580429475
55.080000000001924        0.5662739055835333
55.10000000000192         0.601870474559149
55.12000000000192         0.6208740514234399
55.140000000001905        0.6263797678186035
55.16000000000192         0.6207732466838006
55.18000000000193         0.6017352637556892
55.20000000000194         0.5659730934232818
55.22000000000198         0.516766317206822
55.24000000000201         0.46142490973502465
55.260000000002016        0.4100186190637832
55.280000000002026        0.3671975245188258
55.30000000000206         0.33307011287367494
55.320000000002054        0.30634132379656476
55.34000000000207         0.2856356985987301
55.36000000000208         0.26982256275524835
55.380000000002084        0.2580446735613608
55.400000000002066        0.24968045891208818
55.42000000000209         0.24430147102907457
55.4400000000021          0.24163934913373766
55.46000000000211         0.24156436755814023
55.48000000000213         0.2440744516561393
55.500000000002125        0.24929686410152635
55.52000000000214         0.25749635929315584
55.54000000000214         0.269097461059969
55.56000000000215         0.28471704319213964
55.580000000002165        0.30520655685060794
55.60000000000216         0.3316894807968944
55.62000000000217         0.36553265797568707
55.64000000000217         0.4080225518393434
55.660000000002164        0.45904858244372027
55.68000000000215         0.5139813609177536
55.70000000000214         0.562802980394603
55.72000000000212         0.5981829601477584
55.740000000002105        0.617068039664936
55.7600000000021          0.6225396248211921
55.780000000002104        0.616970175478902
55.80000000000213         0.5979883792209422
55.82000000000214         0.5625153983453975
55.84000000000217         0.5136084148493076
55.86000000000221         0.4585971418531355
55.88000000000223         0.40749390151147535
55.90000000000223         0.364923960681194
55.920000000002254        0.3309962198363447
55.94000000000226         0.30442367659463104
55.960000000002275        0.28383923433925917
55.98000000000227         0.2681190665749693
56.000000000002295        0.2564111211449325
56.02000000000229         0.2480986211065907
56.04000000000231         0.24275322160321983
56.06000000000232         0.24010983641100686
56.080000000002315        0.24003954465988092
56.10000000000234         0.24254084370982312
56.12000000000233         0.24773960632675368
56.14000000000233         0.2558993135497259
56.16000000000235         0.2674421309413776
56.180000000002345        0.28298145766221094
56.200000000002376        0.3033639014834501
56.22000000000237         0.3297065047333368
56.24000000000237         0.3633682184527252
56.26000000000235         0.4056278716963348
56.28000000000235         0.4563744601493058
56.300000000002356        0.5110071798573179
56.32000000000234         0.5596885997822486
56.34000000000232         0.5947906805811815
56.36000000000231         0.6134985698450865
56.38000000000231         0.6189374299375815
56.40000000000232         0.613403294112494
56.420000000002354        0.5945361790096558
56.44000000000235         0.5592707616309449
56.460000000002374        0.510644790287838
56.4800000000024          0.4559434000473303
56.50000000000243         0.40512476588796487
56.520000000002454        0.362790633672396
56.54000000000246         0.32905023454939675
56.560000000002475        0.30262413275504824
56.5800000000025          0.2821555704795318
56.60000000000249         0.26652195799519923
56.62000000000249         0.25487842133393646
56.64000000000251         0.24661113852488142
56.66000000000251         0.2412968155014365
56.68000000000252         0.23867030074116652
56.700000000002525        0.23860347258335754
56.72000000000254         0.24109492129992827
56.74000000000253         0.24626986723730895
56.76000000000256         0.254390359075272
56.78000000000255         0.265876288426042
56.800000000002555        0.28133774339649703
56.82000000000258         0.30161673086334034
56.84000000000256         0.327817795060359
56.86000000000257         0.36128438542899255
56.880000000002575        0.40328256230535003
56.90000000000257         0.4537365875561736
56.92000000000255         0.5081705959321928
56.94000000000255         0.5565862981061568
56.96000000000253         0.5914934432899303
56.98000000000252         0.6100948700674554
57.000000000002515        0.6155027884086963
57.02000000000251         0.6100020829401857
57.04000000000255         0.591244273318464
57.06000000000255         0.5561768602794044
57.080000000002585        0.5078190407332137
57.100000000002616        0.4534134330811846
57.12000000000265         0.40279870914599053
57.14000000000267         0.3607304954514913
57.16000000000268         0.32718982855800083
57.180000000002686        0.3009108931979456
57.20000000000273         0.2805498132182157
57.2200000000027          0.2649991255518576
57.24000000000271         0.2534177206080872
57.26000000000271         0.24519514137046347
57.28000000000271         0.23991042247751884
57.30000000000274         0.2372998886348337
57.32000000000274         0.23723616587549395
57.34000000000276         0.2397179294781052
57.36000000000275         0.24486981052348078
57.38000000000277         0.25295249466797237
57.400000000002784        0.2643858983727225
57.42000000000277         0.2797726481756598
57.44000000000279         0.29995051108518916
57.4600000000028          0.3260207581052566
57.4800000000028          0.3593198126949537
57.5000000000028          0.40110597017403393
57.52000000000279         0.4513031277481052
57.54000000000277         0.5054568151190855
57.560000000002745        0.5536189910043512
57.58000000000272         0.5883408745740466
57.60000000000271         0.6068418684078107
57.62000000000272         0.612221043588078
57.6400000000027          0.6067525332217522
57.66000000000275         0.5881651567406498
57.680000000002764        0.5533606255528736
57.70000000000278         0.5051245099503645
57.72000000000283         0.45090418794925635
57.74000000000285         0.4006423392854618
57.76000000000287         0.35878954935929247
57.78000000000289         0.32542015007961245
57.80000000000289         0.29927516383832076
57.82000000000292         0.2790178297895205
57.84000000000291         0.26354652539525714
57.86000000000291         0.2520245714875755
57.88000000000292         0.24384472729750906
57.90000000000294         0.23858825188103575
57.92000000000294         0.2359928771609252
57.940000000002954        0.23593211101301592
57.96000000000297         0.23840471741963734
57.98000000000297         0.24353465833089294
58.00000000000297         0.25158138317422074
58.02000000000298         0.26296035884683705
58.04000000000298         0.27827493410591897
58.06000000000301         0.29835701214063576
58.080000000003004        0.32430225230150805
58.10000000000301         0.3574402216254961
58.120000000003           0.39902261910013076
58.14000000000299         0.44897303771742897
58.16000000000298         0.5028576649972647
58.180000000002956        0.5507767907297028
58.20000000000292         0.5853212365203826
58.22000000000292         0.6037253119191002
58.240000000002915        0.6090778057707855
58.26000000000293         0.6036405688338676
58.28000000000294         0.5851514745183486
58.30000000000295         0.5505274002475001
58.320000000003           0.5025372411585285
58.340000000003016        0.4485887076027211
58.36000000000305         0.3985764108457852
58.380000000003086        0.356930433253268
58.40000000000309         0.32372541166558355
58.42000000000311         0.29770892886491235
58.44000000000313         0.27755105623161663
58.46000000000312         0.2621557774182183
58.48000000000312         0.2506890723331543
58.50000000000313         0.2425505537792591
58.52000000000315         0.2373213089317475
58.540000000003154        0.2347404427834723
58.56000000000316         0.23468201471008723
58.580000000003174        0.2371448803141113
58.60000000000316         0.24225260522819383
58.62000000000318         0.2502634224134917
58.640000000003184        0.2615907929925785
58.660000000003194        0.2768350759241119
58.68000000000321         0.29682405431317954
58.7000000000032          0.3226479762016942
58.72000000000321         0.355629816184547
58.74000000000321         0.39701494519255853
58.760000000003195        0.44681847624409854
58.780000000003184        0.5003458208230533
58.80000000000315         0.5478960589267307
58.82000000000311         0.5823421419239353
58.84000000000314         0.6007189451919366
58.860000000003126        0.6060447056077797
58.88000000000313         0.6006369718788822
58.90000000000316         0.5822437406414789
58.92000000000317         0.5477940500100394
58.9400000000032          0.5000414674166787
58.96000000000325         0.4463553046721645
58.98000000000325         0.3965838678468145
59.00000000000328         0.3551375163680335
59.0200000000033          0.322091176447807
59.04000000000332         0.29619789110949024
59.06000000000334         0.2761344271719782
59.08000000000333         0.2608127100268061
59.10000000000334         0.2494029937378863
59.120000000003344        0.2413036546844602
59.140000000003354        0.23610004900309037
59.16000000000335         0.23353257335857872
59.18000000000336         0.23347592499973793
59.20000000000338         0.23592899689331584
59.22000000000338         0.24101479763105754
59.240000000003384        0.2489903698683716
59.26000000000339         0.26026725094546915
59.2800000000034          0.2754429456448961
59.30000000000338         0.29534039273514345
59.320000000003425        0.3210534381365292
59.34000000000343         0.35390401250298326
59.36000000000342         0.39513769968777457
59.380000000003406        0.4446425082022163
59.40000000000338         0.49791768050243157
59.42000000000337         0.5452398304472764
59.44000000000334         0.5795183947511579
59.46000000000334         0.5978038892803789
59.48000000000333         0.6031032062611195
59.500000000003325        0.5977237781784784
59.52000000000335         0.5794233134239449
59.540000000003374        0.545142697003638
59.560000000003406        0.4976206660432783
59.580000000003444        0.4442805079446999
59.600000000003476        0.39471864461115486
59.6200000000035          0.3534264436864641
59.64000000000353         0.3205140516811878
59.66000000000352         0.29473518641020785
59.680000000003524        0.27476514257780893
59.70000000000354         0.2595148078766685
59.72000000000355         0.24815841613749057
59.74000000000355         0.24009722852179796
59.76000000000356         0.23491859212061264
59.78000000000356         0.23236415716366762
59.800000000003564        0.23230923952948712
59.82000000000358         0.23475276692443167
59.840000000003585        0.23981720254569502
59.8600000000036          0.24775683723959205
59.880000000003584        0.2589838873062587
59.9000000000036          0.2740925486438156
59.92000000000362         0.29390416744592757
59.940000000003614        0.3195023792085054
59.96000000000364         0.35220534158213274
59.98000000000365         0.393252710569898
60.00000000000362         0.4425323977251157
60.0200000000036          0.4955626351382808
60.04000000000358         0.5426633530107463
60.06000000000355         0.5767792830490261
60.080000000003544        0.5949760061221476
60.100000000003526        0.600249169084223
60.12000000000353         0.594896087450864
60.140000000003546        0.5766191105174492
60.16000000000358         0.5424285060621804
60.1800000000036          0.4952616927482339
60.20000000000365         0.44217480345063565
60.22000000000368         0.3928418558935618
60.2400000000037          0.3517396225854007
60.260000000003714        0.31897819907692054
60.280000000003724        0.29331732772466934
60.30000000000373         0.27343860045453944
60.32000000000375         0.2582580570762511
60.34000000000376         0.24695382791366527
60.36000000000376         0.2389299961153512
60.38000000000376         0.23377585561645212
60.40000000000378         0.23123444565580314
60.42000000000378         0.2311810264076769
60.440000000003806        0.23361502792653682
60.460000000003795        0.23865832339450221
60.48000000000381         0.24656562061324236
60.50000000000382         0.25774483134695
60.520000000003805        0.27278848686441237
60.54000000000382         0.29251421994582455
60.56000000000382         0.3180006904114765
60.58000000000384         0.3505599826274803
60.60000000000383         0.3914259727021595
60.620000000003834        0.4404865911230397
60.6400000000038          0.4932790312838021
60.660000000003784        0.5401658463471138
60.680000000003744        0.5741902975228591
60.70000000000374         0.5922386795251187
60.72000000000373         0.5974875778108666
60.74000000000374         0.5921618617597225
60.76000000000376         0.5739749104597469
60.78000000000378         0.539944910682224
60.80000000000382         0.49299525962836677
60.820000000003866        0.44014740288633986
60.8400000000039          0.39103401974428836
60.860000000003915        0.35011400140332566
60.880000000003925        0.31749761581051317
60.900000000003956        0.29195029026838404
60.920000000003974        0.27215955539778985
60.94000000000397         0.2570485021373118
60.96000000000397         0.24579398125272464
60.980000000003976        0.23780559764080567
61.000000000003986        0.2326745877483989
61.02000000000399         0.23014496730600717
61.04000000000399         0.23009317124176962
61.06000000000403         0.23251812346611017
61.08000000000401         0.2375411758944569
61.10000000000402         0.24541592557668443
61.12000000000403         0.2565484955493197
61.140000000004044        0.271528817704692
61.16000000000406         0.2911709354686491
61.18000000000405         0.3165487243313368
61.20000000000407         0.34896838213750275
61.220000000004056        0.38959226550217146
61.24000000000403         0.4384159677029936
61.260000000004           0.4910733494108329
61.28000000000399         0.5378843365314513
61.300000000003955        0.5716201863613376
61.320000000003944        0.5895872025284828
61.340000000003926        0.5948130324359698
61.360000000003936        0.5895134651307667
61.380000000003946        0.5714112724728212
61.40000000000398         0.5375355541835897
61.42000000000402         0.4907956799675321
61.44000000000406         0.43818041320052536
61.460000000004094        0.38928143692685185
61.48000000000412         0.34853948374536037
61.50000000000414         0.3160586437996945
61.52000000000417         0.29062932317977536
61.540000000004156        0.27092617994226187
61.56000000000417         0.2558785802269774
61.58000000000418         0.24467335321646597
61.60000000000419         0.2367203244038548
61.62000000000419         0.23161255154694943
61.64000000000419         0.2290952089765488
61.6600000000042          0.22904530643537507
61.68000000000423         0.23146180584770237
61.700000000004216        0.23646556943803682
61.72000000000422         0.24430913750420752
61.74000000000423         0.2553969236560557
61.76000000000425         0.2703187641150862
61.78000000000425         0.28987891603410515
61.800000000004246        0.3151452116458829
61.820000000004256        0.3474106478666394
61.84000000000427         0.38789196601929643
61.86000000000425         0.43651164240361784
61.88000000000421         0.48894676666261944
61.900000000004205        0.5355567425908725
61.92000000000415         0.5691457474938821
61.940000000004154        0.587032978768307
61.960000000004136        0.5922356398571498
61.98000000000414         0.5869607423278834
62.000000000004164        0.5689399028937929
62.02000000000419         0.5352127511799142
62.04000000000423         0.48868063735169726
62.06000000000425         0.4361948081229593
62.0800000000043          0.3875270114902812
62.100000000004336        0.3469964211555385
62.12000000000435         0.31467884898374004
62.14000000000436         0.2893568250117215
62.160000000004366        0.2697369107448192
62.18000000000437         0.2547530624426111
62.200000000004394        0.2435955964382309
62.22000000000439         0.23567686955226635
62.24000000000439         0.2305916883631866
62.260000000004396        0.22808633869166817
62.28000000000441         0.22803839735124515
62.30000000000443         0.2304468735727269
62.32000000000443         0.2354331442146058
62.34000000000444         0.24324732498964843
62.36000000000444         0.2542926287262565