% Model:              Untitled.mph
% Version:            COMSOL 5.6.0.280
% Date:               Oct 5 2021, 10:19
% Dimension:          1
% Nodes:              994
% Expressions:        1
% Description:        线图
% cln2x                   Height
21.910000000000007        0.216376905131666
21.920000000000027        0.2166056329919126
21.940000000000026        0.21893021157832562
21.960000000000033        0.22385037961983922
21.980000000000036        0.23160464808729106
22.000000000000036        0.24257675886855415
22.020000000000035        0.2573251902160966
22.040000000000042        0.2766208250109239
22.060000000000045        0.30147924926207514
22.080000000000037        0.3331314755854851
22.100000000000048        0.37272878628379447
22.120000000000054        0.4202505999484518
22.14000000000005         0.4712061327650193
22.160000000000046        0.5163916826013005
22.180000000000042        0.5491008534509116
22.200000000000042        0.5665570183034442
22.220000000000052        0.5716529902719009
22.240000000000048        0.5665933183432664
22.260000000000055        0.5492290369339428
22.28000000000007         0.5166090161985629
22.30000000000006         0.4712963177150899
22.32000000000006         0.42022828272620305
22.340000000000064        0.3727614242830308
22.360000000000067        0.3331223289502229
22.38000000000007         0.30142177527249076
22.40000000000007         0.27650841181382063
22.42000000000007         0.257150790853174
22.44000000000008         0.24233484622726964
22.460000000000075        0.23128676140167573
22.48000000000008         0.223445716380997
22.50000000000008         0.2184256044933078
22.52000000000009         0.21598522055329494
22.540000000000084        0.2160089020665107
22.560000000000088        0.2184971381601111
22.58000000000009         0.22356659654202157
22.600000000000097        0.2314595569755153
22.620000000000093        0.2425632633176592
22.640000000000096        0.25743958735850436
22.6600000000001          0.2768620548577922
22.6800000000001          0.30185830142798287
22.700000000000095        0.3336678937453013
22.720000000000102        0.3734506354727404
22.7400000000001          0.4210630854279597
22.76000000000011         0.4721711113983723
22.780000000000108        0.5174853364855334
22.800000000000107        0.5502857959096331
22.820000000000103        0.5677916438441436
22.84000000000011         0.572904069740112
22.86000000000011         0.5678346413968707
22.88000000000011         0.5504316465650041
22.900000000000112        0.5177398744602347
22.920000000000122        0.47232916410110837
22.94000000000012         0.4212415134406677
22.96000000000012         0.37365282394427674
22.98000000000013         0.3338935542504434
23.00000000000013         0.30210865267950826
23.02000000000013         0.27713908392116693
23.040000000000134        0.25774331012929924
23.06000000000014         0.24289882882832814
23.080000000000137        0.23183016587241856
23.10000000000014         0.22397531057650846
23.12000000000014         0.2189473519995808
23.140000000000146        0.2165046029126343
23.160000000000146        0.21653120042696164
23.180000000000152        0.21902769706085967
23.200000000000152        0.22411109121008554
23.220000000000162        0.23202272368175836
23.24000000000015         0.24315332628329073
23.260000000000154        0.258065598701786
23.28000000000016         0.27753711466608033
23.30000000000016         0.3025930865136546
23.32000000000017         0.3344784688274517
23.340000000000167        0.37435593697456065
23.360000000000174        0.42208194991753095
23.38000000000018         0.47331261790496754
23.400000000000176        0.5187369125247728
23.42000000000017         0.5516181130154311
23.440000000000165        0.5691682843477187
23.460000000000164        0.5742948167644909
23.480000000000175        0.5692145154787339
23.50000000000017         0.5517076917819472
23.520000000000174        0.5188669710097424
23.540000000000184        0.4734770683948412
23.560000000000183        0.42227445256574153
23.580000000000183        0.37457342929118764
23.600000000000186        0.3347209555250769
23.620000000000186        0.3028621895021213
23.640000000000192        0.2778351776954873
23.66000000000019         0.258395314649954
23.680000000000195        0.24351760088205415
23.700000000000202        0.23242466439054538
23.7200000000002          0.22455311822466548
23.7400000000002          0.21951511406218688
23.760000000000204        0.21706856308484063
23.78000000000021         0.21709666252644097
23.80000000000021         0.21960047112890718
23.820000000000213        0.2246972499569889
23.84000000000022         0.23263051246301295
23.860000000000216        0.2437895583914387
23.88000000000021         0.25873952348288864
23.90000000000022         0.2782599707960971
23.920000000000222        0.3033787306542291
23.94000000000022         0.3353439404154321
23.960000000000218        0.3753213062419802
23.980000000000224        0.423167302412949
24.000000000000234        0.47452822495993147
24.020000000000227        0.5200705985551848
24.040000000000223        0.5531021732148613
24.060000000000226        0.570638635235802
24.080000000000222        0.5757802797962673
24.10000000000023         0.5706874216545358
24.120000000000232        0.5531367255313938
24.140000000000235        0.5202122995027363
24.160000000000245        0.47470716578370675
24.18000000000024         0.42337571318229894
24.200000000000248        0.37555556493595005
24.220000000000244        0.3356042338761785
24.24000000000025         0.3036670262380568
24.260000000000257        0.2785789290539074
24.280000000000257        0.2590921140137889
24.30000000000026         0.24418113992359888
24.320000000000267        0.23306167973760902
24.34000000000026         0.2251717103178384
24.360000000000262        0.22012247556850031
24.380000000000262        0.2176710812264948
24.40000000000027         0.21770107443160544
24.42000000000026         0.22021301176470248
24.440000000000275        0.22532450439483626
24.460000000000285        0.23327975640288226
24.48000000000028         0.24446915511406303
24.500000000000284        0.2594594069325076
24.520000000000277        0.2790322400267316
24.54000000000028         0.30421834566646
24.560000000000283        0.336269355686643
24.580000000000283        0.3762890267212766
24.600000000000286        0.424240836187411
24.620000000000285        0.47583592092284877
24.640000000000292        0.5216316920058286
24.660000000000284        0.5546194349257071
24.680000000000284        0.5722050142008359
24.700000000000287        0.5773613538973537
24.72000000000029         0.5722539946470537
24.740000000000286        0.554653816252293
24.760000000000296        0.5216387856948651
24.780000000000303        0.4760102022452908
24.800000000000303        0.42454237077823864
24.820000000000302        0.37659679110910416
24.84000000000031         0.3365413999395841
24.860000000000312        0.30451522647903406
24.88000000000031         0.2793697429082481
24.900000000000308        0.25983491494621963
24.920000000000318        0.24488403923495988
24.940000000000328        0.2337370878370212
24.960000000000317        0.2258281492953228
24.980000000000324        0.22076742082548517
25.00000000000033         0.21831136527234346
25.020000000000326        0.2183432409899358
25.04000000000033         0.22086364303510805
25.06000000000033         0.22599054974470498
25.080000000000336        0.23396889061743495
25.100000000000342        0.24519019524169355
25.120000000000342        0.2602252003958876
25.140000000000338        0.2798515379944101
25.16000000000034         0.3051014031510836
25.18000000000034         0.3372225421584204
25.20000000000034         0.3773815026009476
25.22000000000034         0.42546911345252647
25.24000000000034         0.4772115313511911
25.26000000000035         0.5231400937618089
25.28000000000034         0.5562250838149592
25.300000000000338        0.5738640965291347
25.320000000000338        0.5790372736320281
25.340000000000337        0.5739159240677457
25.36000000000034         0.5562649575625309
25.380000000000347        0.5231551788449298
25.400000000000354        0.477402546569273
25.42000000000036         0.4256944523818118
25.440000000000357        0.377638346085795
25.46000000000036         0.33751084938524617
25.480000000000363        0.3054228162888492
25.500000000000366        0.28020857092297075
25.520000000000373        0.26062083766809446
25.540000000000372        0.24562994552572778
25.560000000000386        0.23445364001997135
25.580000000000382        0.22652440940261426
25.600000000000378        0.2214513355413438
25.620000000000378        0.2189901860225425
25.64000000000038         0.21902390190626747
25.660000000000384        0.22155311110550244
25.680000000000383        0.22669717287241256
25.700000000000387        0.23470036271394168
25.720000000000397        0.24595586342534667
25.740000000000393        0.26103333146883173
25.760000000000396        0.28071776316691444
25.780000000000403        0.30604232532342124
25.800000000000402        0.3382585993138851
25.8200000000004          0.3785367858073358
25.8400000000004          0.42676774645464405
25.8600000000004          0.4786657303556407
25.880000000000393        0.5247345647983864
25.900000000000396        0.5579223379013236
25.920000000000393        0.5756179585735799
25.94000000000039         0.5808092874220139
25.96000000000039         0.5756747951744701
25.9800000000004          0.558034630515335
26.0000000000004          0.524898005003767
26.02000000000041         0.4788725289909376
26.040000000000425        0.4270102380796384
26.060000000000418        0.3788115102586414
26.080000000000418        0.33856569549072396
26.100000000000417        0.30638379975058855
26.120000000000424        0.28109646925973697
26.14000000000043         0.26145254162377624
26.160000000000426        0.24641915434158293
26.18000000000043         0.2352116499311787
26.20000000000044         0.22726080596202253
26.22000000000043         0.2221739861912787
26.24000000000043         0.21970768291032464
26.260000000000435        0.21974353984402248
26.280000000000435        0.2222822756282924
26.30000000000044         0.22744270819197082
26.320000000000448        0.23547135710941464
26.340000000000444        0.2467621354132282
26.360000000000458        0.26188653069589346
26.380000000000454        0.2816320607513247
26.400000000000453        0.30703521454401383
26.42000000000046         0.33935161346442916
26.440000000000456        0.37975530361097826
26.460000000000452        0.4281371776267129
26.48000000000046         0.4801989394223848
26.500000000000455        0.5262794137043789
26.52000000000046         0.5596475035418548
26.540000000000457        0.5774654494041958
26.560000000000453        0.5826759445965707
26.580000000000453        0.5775254828513616
26.60000000000045         0.5598284683811589
26.62000000000046         0.5265861142154388
26.640000000000462        0.480415142057766
26.66000000000046         0.4283911445954997
26.680000000000476        0.38004353165238436
26.700000000000475        0.33967421860593877
26.720000000000475        0.30739423992628223
26.740000000000478        0.28203044681202966
26.760000000000485        0.2623252579073529
26.780000000000484        0.2472475176130923
26.800000000000487        0.23600786657174896
26.820000000000498        0.2280348416627687
26.840000000000494        0.22293505424400076
26.860000000000497        0.22046280344626504
26.880000000000496        0.22050038164004818
26.900000000000496        0.22304853119871457
26.920000000000503        0.2282264837659756
26.9400000000005          0.2362815942157067
26.96000000000051         0.24760909853262683
26.980000000000512        0.26278239712558793
27.000000000000508        0.2825916414489765
27.02000000000051         0.30807678900518015
27.04000000000051         0.3405242858811632
27.06000000000051         0.3810983774369653
27.080000000000506        0.42966155372088416
27.100000000000513        0.4817988344856455
27.12000000000051         0.5280397256175009
27.1400000000005          0.5615214921315175
27.16000000000051         0.5794021037548597
27.180000000000504        0.5846322400730547
27.200000000000497        0.579465313285117
27.22000000000051         0.561709049110328
27.24000000000051         0.5283561733729634
27.260000000000524        0.4820329197680588
27.280000000000527        0.4298393982611699
27.300000000000544        0.3813356209495573
27.320000000000537        0.3408634746970875
27.34000000000054         0.3084603500740203
27.36000000000054         0.28300924976936764
27.380000000000543        0.26324316767570616
27.40000000000055         0.24811874795033298
27.420000000000545        0.23684477903293638
27.44000000000055         0.22884789219684057
27.46000000000055         0.22373341063463253
27.48000000000055         0.2212548563940124
27.50000000000055         0.22129415617553932
27.520000000000554        0.22385207649539238
27.540000000000553        0.22904828057896467
27.560000000000564        0.2371309992515586
27.580000000000563        0.24849465209619387
27.60000000000057         0.2637188613714965
27.620000000000573        0.28359637244072305
27.64000000000057         0.30917451508990745
27.660000000000572        0.34172520142118407
27.680000000000565        0.38243676546519456
27.700000000000568        0.431165256670233
27.72000000000056         0.48348142787727383
27.74000000000056         0.5298830026094754
27.76000000000056         0.5634825992968935
27.780000000000566        0.5814275274932886
27.800000000000566        0.5866771615707078
27.820000000000558        0.581491966887784
27.84000000000056         0.563672565476342
27.860000000000564        0.5300660803976026
27.880000000000575        0.48371437867756867
27.900000000000574        0.4314403796386328
27.92000000000058         0.38275038467824557
27.94000000000059         0.34207734010504726
27.960000000000594        0.3095672303121485
27.980000000000594        0.2840327300769471
28.000000000000597        0.264202454021255
28.0200000000006          0.2490294374544918
28.0400000000006          0.23771973082773948
28.060000000000603        0.22969798387729556
28.080000000000613        0.22456816488330192
28.10000000000061         0.22208297566056054
28.12000000000061         0.22212397976580606
28.140000000000615        0.22469143599880068
28.160000000000615        0.22990607046048625
28.18000000000061         0.23801682776343355
28.200000000000614        0.2494218650686721
28.220000000000613        0.2646991282369322
28.240000000000627        0.2846458372134753
28.260000000000623        0.31031312713544107
28.280000000000626        0.34297754507950834
28.30000000000063         0.38383183909178137
28.320000000000626        0.43273203608450134
28.34000000000062         0.4852343344354681
28.36000000000062         0.531803669996125
28.380000000000614        0.5655266408806691
28.40000000000061         0.5835394123035794
28.420000000000616        0.5888102850392349
28.440000000000612        0.5836064527497158
28.46000000000062         0.5656588719669979
28.48000000000061         0.5319965084710803
28.500000000000625        0.4854795549679252
28.520000000000632        0.4330209903490621
28.540000000000642        0.38416048543191017
28.56000000000065         0.34334604060273544
28.580000000000645        0.3107237529532267
28.60000000000065         0.2851018588724428
28.620000000000648        0.2652043365143949
28.640000000000658        0.2499804147415461
28.660000000000654        0.23863325865372792
28.68000000000065         0.2305864541125441
28.70000000000066         0.22544002382609493
28.72000000000067         0.22294736966121523
28.740000000000673        0.2229895995300357
28.76000000000067         0.2255674932589529
28.780000000000665        0.23080156625016227
28.800000000000683        0.23894186511636098
28.82000000000067         0.25038803891220296
28.840000000000682        0.26572019903732136
28.860000000000685        0.2857385535040498
28.880000000000685        0.31149817984835715
28.900000000000684        0.344280424564583
28.920000000000684        0.3852826139178355
28.94000000000068         0.4343607970011565
28.960000000000676        0.4870621582880182
28.98000000000067         0.5339375858179988
29.000000000000668        0.5677159679093309
29.020000000000667        0.5857356042667691
29.04000000000066         0.5910277427404487
29.060000000000677        0.5858048984925271
29.08000000000067         0.5677895737424622
29.100000000000676        0.5340015402104871
29.120000000000683        0.4873125311766799
29.140000000000686        0.4346625297155976
29.160000000000696        0.385625493144552
29.180000000000703        0.3446647252035618
29.200000000000706        0.3119263774016435
29.220000000000706        0.286214868386327
29.24000000000071         0.2662494109131691
29.260000000000716        0.2509726297050326
29.280000000000715        0.23958613839285559
29.300000000000715        0.23151079208168193
29.320000000000725        0.22634773939349762
29.340000000000728        0.22384785666051132
29.360000000000724        0.22389182941245767
29.38000000000073         0.22648048232503987
29.40000000000073         0.23173483475118029
29.420000000000734        0.23990591924223648
29.440000000000726        0.25139494313503186
29.46000000000073         0.2667842791564401
29.480000000000736        0.2868772574119977
29.500000000000746        0.3127266480499333
29.520000000000735        0.34561114783301666
29.540000000000738        0.38672757370248095
29.560000000000738        0.4359672143607869
29.580000000000727        0.48896063978084103
29.600000000000723        0.5360175832716971
29.62000000000072         0.5699286553714421
29.64000000000072         0.5880206954389217
29.66000000000072         0.5933345957299547
29.680000000000724        0.5880903969599909
29.700000000000724        0.5700025039663624
29.720000000000727        0.5360820631963739
29.740000000000734        0.48921310103842947
29.760000000000744        0.43636471493821644
29.780000000000747        0.387078444807013
29.800000000000757        0.3460067674553116
29.82000000000077         0.313169201240748
29.840000000000764        0.2873707451997902
29.860000000000763        0.26733335039448886
29.88000000000077         0.25200206189362984
29.900000000000766        0.2405754516454028
29.920000000000773        0.23247216428588033
29.94000000000078         0.2272918297823518
29.96000000000078         0.2247843844345306
29.980000000000786        0.2248300769360409
30.00000000000078         0.22742976568401568
30.02000000000079         0.232704985316192
30.040000000000784        0.24090941332444396
30.06000000000079         0.2524432763196148
30.080000000000787        0.2678918566533391
30.10000000000079         0.2880602814822896
30.1200000000008          0.31400824257538085
30.140000000000796        0.34701957208330186
30.160000000000792        0.38829524213632055
30.180000000000792        0.437726681862999
30.200000000000784        0.4909286097406762
30.220000000000777        0.5381738476762128
30.240000000000776        0.5722228791363683
30.26000000000078         0.5903906898446262
30.280000000000776        0.5957282307499115
30.300000000000775        0.5904637796494323
30.320000000000782        0.5723687688494078
30.34000000000079         0.5383867865020537
30.360000000000788        0.49119945409995835
30.38000000000081         0.4380469159342299
30.40000000000081         0.3886611595124391
30.42000000000081         0.34743152312434905
30.440000000000826        0.31446871533672716
30.46000000000082         0.2885727360481383
30.48000000000082         0.26846028712646164
30.50000000000082         0.25307214473976614
30.52000000000083         0.24160367735517677
30.540000000000827        0.2334712095839563
30.560000000000823        0.2282727755429436
30.580000000000833        0.2257573218767114
30.600000000000836        0.22580480280915322
30.620000000000832        0.2284161469737948
30.640000000000835        0.23371328696754454
30.66000000000084         0.24194937209035253
30.680000000000838        0.2535288200851899
30.70000000000084         0.2690383188407338
30.720000000000844        0.28928632962668127
30.740000000000844        0.3153369404481996
30.760000000000854        0.34847934779051887
30.780000000000847        0.3899196623691105
30.800000000000846        0.4395494584623171
30.820000000000842        0.49296703406361214
30.84000000000084         0.5404069803357993
30.86000000000083         0.5745332345428573
30.88000000000083         0.5928436750139134
30.900000000000833        0.5982056267352445
30.92000000000083         0.5929195357735251
30.940000000000843        0.5747467768006848
30.96000000000084         0.5406234476767371
30.98000000000085         0.49324290332746873
31.000000000000856        0.4398770730987574
31.020000000000866        0.3902956677953544
31.04000000000087         0.3489040403259544
31.060000000000873        0.31581272310039105
31.080000000000886        0.2898166337058216
31.100000000000882        0.2696271310541629
31.12000000000088         0.2541806008768848
31.14000000000088         0.2426674948496679
31.160000000000885        0.23450563968179106
31.180000000000884        0.22928909021987598
31.200000000000887        0.22676580932545132
31.220000000000894        0.22681517201783025
31.240000000000897        0.22943816016841795
31.260000000000897        0.23475742255901383
31.280000000000896        0.24302719488658137
31.300000000000903        0.2546536203080302
31.320000000000903        0.2702258859701655
31.34000000000091         0.2905558962751609
31.360000000000916        0.3167122789962965
31.38000000000091         0.3499897582812803
31.4000000000009          0.3915997386682997
31.420000000000897        0.44152607226904855
31.440000000000904        0.4950683974259543
31.460000000000896        0.5425762957653694
31.480000000000903        0.5769898853704423
31.500000000000888        0.5953823434606359
31.520000000000888        0.6007701384455156
31.540000000000887        0.5954628259775591
31.560000000000894        0.57721319088332
31.580000000000886        0.5429459252549137
31.600000000000904        0.4953667812968584
31.62000000000091         0.4417791925388581
31.640000000000917        0.3919933881457987
31.66000000000093         0.3504324923517784
31.680000000000938        0.31721355172855736
31.70000000000093         0.2911057443587101
31.72000000000093         0.2708343153416927
31.740000000000933        0.2553272013202073
31.76000000000094         0.2437715533727379
31.780000000000946        0.23557840026413637
31.800000000000946        0.23034236112637743
31.820000000000945        0.2278103410451514
31.840000000000952        0.22786121685471586
31.86000000000095         0.230495994086522
31.880000000000948        0.2358378698620499
31.900000000000947        0.24414219829581224
31.920000000000954        0.2558169026138195
31.940000000000946        0.27145375224129975
31.96000000000096         0.29186740038025044
31.980000000000967        0.3181401444332946
32.00000000000096         0.3515777944571457
32.02000000000096         0.39340346698160766
32.040000000000944        0.4434733864055118
32.06000000000095         0.49724497389801786
32.080000000000936        0.5449596943473213
32.10000000000094         0.5795253657608275
32.12000000000093         0.5980011083659763
32.140000000000924        0.6034138219096442
32.16000000000093         0.5980818503006166
32.18000000000094         0.5797490737350816
32.20000000000094         0.5453302308727044
32.22000000000094         0.49754464308300617
32.240000000000954        0.4438228437064474
32.26000000000096         0.39380474758419176
32.28000000000096         0.3520313177393142
32.30000000000098         0.3186486098593768
32.320000000000974        0.29243455491646936
32.34000000000097         0.27208139641578233
32.36000000000097         0.2565123982057368
32.380000000000976        0.2449111532847875
32.40000000000098         0.2366861572436784
32.42000000000098         0.23143032157711552
32.440000000000985        0.22888949320617463
32.46000000000098         0.22894205483207092
32.480000000000985        0.23158904810259948
32.500000000000995        0.23695320824050042
32.52000000000099         0.24529251245586017
32.540000000000994        0.2570162566512474
32.560000000001004        0.27271932714252634
32.58000000000101         0.29322231692011735
32.60000000000099         0.3196072285335492
32.62000000000099         0.353188281245039
32.640000000000995        0.3951942833821826
32.66000000000099         0.4454815585821333
32.68000000000098         0.49948926808168137
32.70000000000097         0.5474173772576341
32.720000000000965        0.5821402356699688
32.74000000000096         0.6007024726996751
32.76000000000096         0.6061417311611811
32.78000000000095         0.6007857306810911
32.80000000000098         0.582302725165532
32.82000000000097         0.5476549057997379
32.84000000000098         0.4997928476433929
32.860000000000994        0.445842764028762
32.880000000001           0.3956094296856214
32.90000000000101         0.353657922492221
32.920000000001004        0.3201342302614863
32.94000000000101         0.29381059484963545
32.96000000000101         0.2733733221442731
32.980000000001006        0.2577408104435243
33.000000000001           0.2460929505993319
33.02000000000101         0.23783555876581167
33.04000000000101         0.23255975877905727
33.06000000000102         0.230010494737282
33.080000000001036        0.23006492986887409
33.10000000000102         0.23272465278351853
33.12000000000102         0.23811397210551893
33.140000000001024        0.24649057789172923
33.16000000000102         0.25826623499820067
33.18000000000102         0.27403860325244805
33.20000000000102         0.29463210380855126
33.22000000000102         0.32113379804691916
33.24000000000101         0.35486408430464794
33.26000000000103         0.3970576975656243
33.280000000001024        0.4475710796257727
33.30000000000101         0.5018244379959422
33.320000000001016        0.5499746222780866
33.340000000001           0.5849276026880326
33.360000000000994        0.6035144607863302
33.380000000001004        0.6089811449069845
33.40000000000099         0.603600361658104
33.42000000000099         0.5850323864403594
33.440000000001014        0.5502249530364388
33.46000000000102         0.5021442069756019
33.48000000000102         0.447950351230068
33.50000000000103         0.39749230485314874
33.52000000000103         0.35535495442484405
33.540000000001044        0.3216843093838213
33.56000000000105         0.29524660718464046
33.58000000000105         0.27472189435679506
33.600000000001046        0.25902575882304607
33.62000000000106         0.2473289967650021
33.640000000001045        0.23903757810100887
33.66000000000105         0.23374080049123913
33.68000000000106         0.23118225538009565
33.700000000001054        0.23123924925209302
33.72000000000108         0.2339128544533507
33.74000000000105         0.23932800842378063
33.76000000000106         0.24774366215112817
33.78000000000106         0.2595735786339264
33.80000000000107         0.2754183120084863
33.82000000000106         0.2961062777514546
33.84000000000106         0.32272981457780137
33.860000000001065        0.3566157659055359
33.88000000000106         0.39893629392309427
33.90000000000107         0.44966060366152805
33.92000000000105         0.5042696460061754
33.94000000000104         0.5527878749297269
33.960000000001024        0.5877707706826834
33.98000000000103         0.6064517070283058
34.00000000000102         0.6119473019376314
34.020000000001026        0.6065400455226755
34.040000000001044        0.5878801787117762
34.06000000000105         0.5529041831196135
34.08000000000106         0.5045940603446675
34.10000000000105         0.4501467813701644
34.12000000000106         0.3994561105177104
34.14000000000107         0.3571265028421005
34.16000000000107         0.32329717317737
34.18000000000107         0.2967488533508282
34.200000000001076        0.27613531959014365
34.22000000000109         0.2603684682748536
34.24000000000108         0.24862182740437827
34.26000000000108         0.24029598151570858
34.280000000001074        0.23497822918626182
34.30000000000109         0.23241094480361765
34.32000000000109         0.23247090989399438
34.340000000001076        0.23515927084668445
34.36000000000109         0.24060163333386503
34.38000000000109         0.24905827198438815
34.4000000000011          0.2609450407874807
34.42000000000109         0.27686803400827653
34.44000000000109         0.2976531251173731
34.46000000000109         0.3243965851563133
34.48000000000109         0.3584240193425005
34.5000000000011          0.40097646794317476
34.5200000000011          0.45194707843722143
34.54000000000109         0.5068248560788636
34.56000000000108         0.5555874717616112
34.58000000000109         0.5907503877856717
34.60000000000107         0.6095309276814324
34.62000000000107         0.6150575122755785
34.640000000001066        0.6096229128577224
34.66000000000107         0.5908670390216286
34.68000000000108         0.555714634406966
34.70000000000109         0.5071699393032709
34.72000000000111         0.4523573163513045
34.74000000000111         0.4014481755522241
34.76000000000111         0.3589586985611637
34.78000000000111         0.3249981476805135
34.800000000001106        0.2983264194174933
34.820000000001116        0.2776183327604887
34.84000000000112         0.261780275997177
34.86000000000111         0.2499816213398785
34.880000000001125        0.24161995861681568
34.90000000000113         0.23628052159525098
34.92000000000112         0.2337043825346014
34.94000000000113         0.2337677422774387
34.960000000001116        0.23647183616915202
34.980000000001134        0.2419440430669131
35.00000000000113         0.2504445543589997