% Model:              Untitled.mph
% Version:            COMSOL 5.6.0.280
% Date:               Oct 5 2021, 10:19
% Dimension:          1
% Nodes:              1015
% Expressions:        1
% Description:        线图
% cln1x                   Height
49.2                      0.3378890420685588
49.21999999999992         0.3363884167790783
49.23999999999991         0.340236576516561
49.259999999999906        0.3497928872591798
49.2799999999999          0.36575024053760785
49.2999999999999          0.3891624741718491
49.319999999999894        0.42140636626421935
49.339999999999876        0.463836466128704
49.35999999999987         0.5164029222825876
49.37999999999987         0.5742791116005069
49.399999999999864        0.6264711398616977
49.41999999999985         0.6644033030763765
49.43999999999984         0.6846972484010919
49.45999999999984         0.6905011636915184
49.47999999999982         0.684177933312857
49.499999999999815        0.6631774401821626
49.519999999999825        0.62419904444623
49.53999999999983         0.5705032152353565
49.55999999999981         0.5106164203766317
49.57999999999979         0.455596155679983
49.59999999999979         0.4103578545675329
49.61999999999979         0.37500882733057656
49.63999999999978         0.34821407968342927
49.65999999999977         0.3285849358461779
49.67999999999976         0.3150301489449491
49.699999999999775        0.3067969268626185
49.71999999999975         0.30344370757151323
49.739999999999746        0.3048131241060861
49.759999999999735        0.3110187022018528
49.77999999999973         0.3224555247292903
49.79999999999973         0.3398257194732147
49.81999999999972         0.3641645285839576
49.839999999999705        0.39680222503396806
49.85999999999971         0.439028320684159
49.87999999999969         0.4907534669703148
49.89999999999969         0.5472570861949069
49.91999999999969         0.59791623044567
49.939999999999685        0.6346041328702472
49.959999999999695        0.654194364287301
49.97999999999967         0.6598548292116084
49.99999999999967         0.6539435938644204
50.01999999999966         0.6340427711357114
50.03999999999966         0.5969315681401383
50.05999999999963         0.5457019536783433
50.07999999999962         0.48846503032470634
50.09999999999962         0.4358643919156202
50.11999999999961         0.3926513076305017
50.1399999999996          0.358937055628105
50.1599999999996          0.3334422348246572
50.17999999999959         0.31483643413939605
50.19999999999959         0.3020758463848766
50.219999999999565        0.2944423611096153
50.23999999999957         0.2915173089237736
50.25999999999958         0.29315485473148134
50.27999999999956         0.2994733721972533
50.299999999999564        0.31085802647335137
50.319999999999546        0.3279937028207436
50.339999999999534        0.35188613524046547
50.35999999999952         0.3838252928657513
50.37999999999953         0.4250579920795392
50.39999999999952         0.4754844018356975
50.41999999999951         0.5304919725801436
50.43999999999951         0.5797392752188366
50.4599999999995          0.6153663382298654
50.479999999999485        0.6343677731062028
50.499999999999496        0.6398634770054631
50.519999999999506        0.6341657872068028
50.53999999999948         0.6148585094431138
50.559999999999484        0.578989765121087
50.579999999999465        0.5293430570977764
50.59999999999946         0.4738342887163444
50.61999999999943         0.42281635551577584
50.639999999999425        0.38091992081094983
50.65999999999942         0.3482576611398243
50.67999999999942         0.32358842673951266
50.69999999999941         0.30562153502264605
50.71999999999941         0.2933450708067965
50.7399999999994          0.2860638225920588
50.759999999999394        0.2833737945022346
50.77999999999938         0.28513645546650923
50.79999999999938         0.2914688012135882
50.819999999999375        0.3027523294035408
50.839999999999364        0.3196595210703648
50.85999999999936         0.34316869958875246
50.87999999999935         0.37454233483733484
50.89999999999935         0.41499635524744166
50.91999999999935         0.46442541964825707
50.939999999999344        0.5183023844345865
50.95999999999935         0.5664989864172546
50.97999999999934         0.6013452455937321
50.99999999999934         0.619918528012287
51.01999999999934         0.6252937558879103
51.039999999999324        0.6197447219541519
51.05999999999931         0.6009082454471313
51.07999999999932         0.5657454814441965
51.09999999999929         0.517383714294862
51.11999999999929         0.46313562164610583
51.13999999999926         0.41327359750134063
51.159999999999265        0.3723357631281226
51.17999999999925         0.34043510808450156
51.19999999999925         0.31635873184472785
51.21999999999923         0.2988452590902041
51.23999999999922         0.2869061736400452
51.259999999999216        0.27986292127395895
51.27999999999921         0.277322001565587
51.299999999999216        0.27914984541894744
51.31999999999921         0.2854631929764366
51.339999999999186        0.29663799525094275
51.35999999999919         0.3133342133117698
51.37999999999918         0.33651650153584517
51.39999999999917         0.3674204735172925
51.41999999999917         0.4072396966405754
51.43999999999916         0.45586586541951296
51.45999999999917         0.5088415093264478
51.47999999999916         0.5562078188141371
51.49999999999915         0.5904408077238245
51.51999999999914         0.6086796925593463
51.53999999999913         0.6139599253576966
51.55999999999914         0.6085225890840062
51.57999999999914         0.5900459297447762
51.59999999999913         0.5555361656791782
51.619999999999116        0.5080561819257957
51.6399999999991          0.4548828362799287
51.65999999999908         0.40583317487697446
51.679999999999076        0.3656409344153504
51.699999999999065        0.33433041786078965
51.719999999999075        0.31071086267330694
51.73999999999905         0.29354385409176476
51.75999999999907         0.2818591403083361
51.779999999999035        0.27499109088867685
51.799999999999045        0.27255425027404295
51.81999999999903         0.2744187071806983
51.83999999999902         0.280700714021414
51.85999999999902         0.2917715193593457
51.879999999999           0.30828181221218387
51.899999999999004        0.33118698115395395
51.919999999999           0.3616891479061922
51.93999999999898         0.4009778012484592
51.959999999998985        0.4489379853027048
51.97999999999898         0.5011702939541326
51.999999999998984        0.5478551125344402
52.019999999998994        0.5815863284524112
52.039999999998976        0.5995522454379473
52.05999999999897         0.6047543064263811
52.07999999999897         0.5994056786569143
52.099999999998964        0.5812182057962996
52.119999999998946        0.5472362990468171
52.139999999998935        0.5004747169393263
52.159999999998924        0.44809807331492246
52.179999999998905        0.3998449398424139
52.19999999999889         0.3601962324355035
52.21999999999889         0.32936411353237666
52.23999999999886         0.3061135305616123
52.25999999999887         0.28922477498276605
52.27999999999887         0.2777424409625435
52.299999999998846        0.2710113608574505
52.31999999999886         0.2686525373072169
52.33999999999883         0.27053891176029216
52.35999999999885         0.27678617600218763
52.37999999999882         0.28776154383127067
52.39999999999882         0.3041079015177566
52.41999999999882         0.32676871576944444
52.43999999999881         0.3569542236977498
52.45999999999879         0.3958289054817831
52.4799999999988          0.4431633327311248
52.4999999999988          0.49476821945153326
52.51999999999882         0.540879951711167
52.53999999999882         0.5741904281289741
52.55999999999881         0.5919283209251881
52.57999999999881         0.5970655963970892
52.59999999999879         0.5917916997982143
52.6199999999988          0.5738465808654553
52.63999999999878         0.5403064607016482
52.65999999999877         0.4941458840295532
52.67999999999875         0.4424352863777368
52.69999999999873         0.39479497349436277
52.71999999999872         0.35567697697245376
52.739999999998695        0.325220844980902
52.75999999999871         0.3022782853302838
52.779999999998694        0.2856214843718159
52.79999999999869         0.2743073892836527
52.819999999998686        0.2676895327439867
52.83999999999866         0.26539427531961457
52.859999999998664        0.2672969021671321
52.879999999998674        0.27351259034717706
52.899999999998656        0.28440512753123504
52.91999999999866         0.3006108232316991
52.93999999999864         0.32306312639703044
52.95999999999864         0.3529591097423996
52.97999999999863         0.3914501074427727
52.999999999998614        0.4383922880476242
53.019999999998625        0.48938166492473767
53.03999999999863         0.5350098939065621
53.059999999998624        0.5679660180449912
53.079999999998634        0.5855124121511904
53.099999999998644        0.5905957690708821
53.119999999998626        0.5853854673442449
53.139999999998636        0.5676451146618693
53.159999999998604        0.5344773941456629
53.1799999999986          0.48882288881541114
53.19999999999856         0.4376723055212289
53.219999999998564        0.3905467332450441
53.23999999999853         0.35185401792065185
53.25999999999853         0.32173802519859535
53.27999999999852         0.29904702149657353
53.29999999999851         0.282584683074663
53.3199999999985          0.27140986883407225
53.339999999998504        0.26488453973361925
53.359999999998486        0.26263949711579637
53.37999999999847         0.26455192123175914
53.399999999998485        0.27073646368976184
53.41999999999847         0.28155391446911315
53.43999999999846         0.2976349083145653
53.45999999999846         0.319904308818002
53.47999999999847         0.34954794360336927
53.499999999998444        0.3877059566115259
53.51999999999846         0.4342343936488371
53.53999999999845         0.4847616556023585
53.55999999999847         0.5299784443998924
53.57999999999848         0.562629728093613
53.599999999998474        0.5800114558406353
53.6199999999985          0.5850479748476919
53.639999999998466        0.5798908676050569
53.65999999999847         0.5623240651237671
53.679999999998444        0.5294740442324867
53.69999999999843         0.484252592666588
53.71999999999839         0.43358301144793315
53.73999999999838         0.386900175231415
53.759999999998364        0.3485730750640474
53.779999999998374        0.31874484955744353
53.79999999999834         0.2962746393067695
53.81999999999834         0.2799751921554195
53.83999999999833         0.2689209272075198
53.859999999998315        0.2624734213144871
53.87999999999832         0.26026947139071116
53.8999999999983          0.2621878537786644
53.919999999998296        0.2683427235737188
53.939999999998285        0.2790922346841973
53.95999999999828         0.29506206648059397
53.97999999999828         0.3171696122543715
53.99999999999827         0.34659095310480725
54.01999999999826         0.38445656662653027
54.03999999999828         0.43062255010376926
54.05999999999826         0.4807501873531292
54.079999999998286        0.5254741343792478
54.099999999998296        0.5579280770626116
54.1199999999983          0.5752280229372275
54.139999999998295        0.5802238244018139
54.15999999999829         0.5751126910712481
54.17999999999828         0.5576962660366841
54.19999999999826         0.52512206562033
54.21999999999824         0.4802769366419662
54.23999999999821         0.43002581324083855
54.2599999999982          0.38372824163559915
54.279999999998175        0.3457191320443755
54.299999999998164        0.3161409449411423
54.31999999999816         0.29386229242571954
54.339999999998156        0.27770575673316145
54.359999999998145        0.2667518076452053
54.379999999998134        0.2603724888121783
54.39999999999813         0.2582028127276711
54.41999999999813         0.2601245916694726
54.439999999998115        0.266251506995715
54.459999999998104        0.2769393612895868
54.4799999999981          0.29280944329178205
54.49999999999809         0.31477254042628283
54.5199999999981          0.34399613322242617
54.53999999999809         0.3816022155386719
54.55999999999809         0.4274471088155096
54.57999999999811         0.4772216750524761
54.59999999999813         0.5216267368635583
54.61999999999812         0.5538474666955902
54.63999999999813         0.5710214902854353
54.65999999999812         0.575983597071668
54.67999999999812         0.5709141954535135
54.699999999998106        0.5536314665823587
54.71999999999809         0.5213007457594914
54.73999999999806         0.4767867337681066
54.75999999999803         0.42690223898141577
54.77999999999802         0.38094136129133116
54.799999999998           0.34320977350434656
54.81999999999799         0.3138494678445363
54.83999999999798         0.29173730840716855
54.859999999997974        0.2757044382875342
54.87999999999796         0.264838079029624
54.89999999999796         0.25851411472796
54.91999999999795         0.25637289931808926
54.93999999999793         0.2582948259626079
54.95999999999793         0.26439393795160154
54.979999999997936        0.2750238956237211
54.99999999999791         0.29080203959581935
55.01999999999792         0.31263324697016676
55.03999999999791         0.3416773302420167
55.059999999997906        0.37904875707225116
55.079999999997916        0.4246040834821145
55.09999999999791         0.4740604324382651
55.11999999999793         0.5181776285007643
55.13999999999795         0.550187470094149
55.15999999999795         0.5672477745577651
55.17999999999794         0.5721776995739475
55.199999999997935        0.5671444699467382
55.21999999999793         0.5499802371390085
55.23999999999791         0.5178666996447119
55.25999999999789         0.47364876263308026
55.279999999997855        0.4240929892943004
55.29999999999784         0.3784341333275972
55.31999999999782         0.3409511250775294
55.33999999999781         0.3117854539432117
55.3599999999978          0.2898214281000845
55.37999999999778         0.2738979061650159
55.39999999999778         0.26310818047409495
55.41999999999778         0.256832350604769
55.439999999997774        0.2547132666546474
55.45999999999776         0.25663309820466884
55.479999999997766        0.2627028571116794
55.49999999999775         0.27327671071072557
55.51999999999775         0.2889675112498745
55.539999999997754        0.3106746988492297
55.559999999997736        0.3395510537733633
55.57999999999774         0.37670416988547606
55.599999999997735        0.42199088953037245
55.619999999997745        0.4711524900866246
55.63999999999776         0.5150030351614688
55.659999999997765        0.546817410506142
55.67999999999779         0.5637719584770424
55.69999999999778         0.5686713583011423
55.71999999999777         0.563671391111069
55.739999999997764        0.5466142821236142
55.75999999999774         0.5146998338103461
55.77999999999771         0.47075398920706346
55.799999999997695        0.4215011764049118
55.81999999999766         0.3761209371819729
55.83999999999766         0.338867102874833
55.85999999999763         0.30988061684548107
55.87999999999763         0.28805267841931254
55.89999999999761         0.2722292874474298
55.9199999999976          0.261509342531212
55.9399999999976          0.2552768283000387
55.9599999999976          0.2531769049495885
55.97999999999758         0.2550925975829872
55.999999999997584        0.2611360428451028
56.01999999999757         0.27165454160848235
56.039999999997555        0.287262466145345
56.059999999997565        0.30885251917902906
56.079999999997554        0.33757090338688184
56.099999999997564        0.3745187968193086
56.11999999999755         0.4195534020658762
56.13999999999756         0.4684389059415136
56.159999999997574        0.512040385442026
56.17999999999759         0.5436726016603353
56.19999999999759         0.5605290469330362
56.21999999999759         0.5654005376135115
56.2399999999976          0.5604313861459405
56.25999999999758         0.5435351328947402
56.27999999999757         0.5118733522687118
56.299999999997524        0.468054978066892
56.319999999997506        0.41908379718663535
56.339999999997474        0.373962064129208
56.359999999997456        0.3369205385040563
56.379999999997445        0.30809971334184594
56.39999999999743         0.28639718370123785
56.41999999999743         0.27066556574772327
56.43999999999743         0.2600089423700734
56.459999999997414        0.2538148749879078
56.47999999999742         0.2517306347930953
56.4999999999974          0.2536400166667754
56.5199999999974          0.2596546082221126
56.5399999999974          0.2701219671545689
56.55999999999739         0.28564788420530196
56.57999999999738         0.3071232119551093
56.59999999999738         0.33568913974916337
56.61999999999737         0.37243963016423154
56.63999999999738         0.4172322915658341
56.65999999999741         0.4658532719270892
56.67999999999741         0.509216410475305
56.69999999999742         0.5406744696632723
56.719999999997434        0.5574372849605239
56.73999999999743         0.5622824577751352
56.759999999997426        0.5573434777980509
56.779999999997415        0.5405447225741731
56.79999999999739         0.5090609303770506
56.81999999999736         0.46549063015189374
56.839999999997325        0.41678202522523133
56.85999999999731         0.3719055889508118
56.87999999999729         0.335065401338812
56.89999999999727         0.30640161043879277
56.91999999999726         0.28481785146417365
56.939999999997255        0.26917298447922444
56.959999999997244        0.2585759850526321
56.97999999999724         0.25241778413248894
56.99999999999724         0.2503476293651459
57.01999999999722         0.25225002789937817
57.03999999999723         0.2582360443571536
57.0599999999972          0.2686514085382214
57.07999999999721         0.28409870823564864
57.09999999999719         0.3054594485110529
57.119999999997184        0.3338827464343226
57.13999999999719         0.37044277177995094
57.159999999997204        0.4150022015010053
57.17999999999721         0.46336834386111087
57.19999999999723         0.5065019496362193
57.21999999999725         0.5377922524596724
57.23999999999725         0.5544646825967795
57.259999999997255        0.559283883689225
57.27999999999725         0.5543725955834631
57.29999999999723         0.5376656600436894
57.319999999997215        0.5063514263646609
57.339999999997175        0.4630138628990203
57.359999999997136        0.41448294231114746
57.37999999999713         0.3698666969001907
57.39999999999709         0.3332791234353173
57.41999999999708         0.30476721257233746
57.43999999999708         0.2832982507649278
57.459999999997066        0.26773718244504435
57.47999999999707         0.2571977433446918
57.49999999999705         0.25107413828145575
57.519999999997054        0.2490175327802965
57.53999999999705         0.25091312652367176
57.55999999999704         0.2568715006738995
57.579999999997035        0.2672366565899074
57.59999999999704         0.282608088332365
57.61999999999703         0.3038627847092988
57.63999999999702         0.3321218365922229
57.659999999997005        0.36852031658289586
57.679999999997015        0.4128548562407355
57.69999999999703         0.4609753799227579
57.71999999999706         0.50388791443799
57.73999999999709         0.5350167624056619
57.75999999999709         0.551602340657923
57.779999999997095        0.5563967469662708
57.79999999999708         0.5515124070672546
57.81999999999707         0.5348942618682172
57.83999999999705         0.5037436207559948
57.85999999999702         0.4606303844056348
57.879999999996976        0.4123485769250301
57.89999999999696         0.36796060395015895
57.91999999999693         0.33153817261953367
57.93999999999692         0.3031945829971165
57.959999999996896        0.28183616396587036
57.97999999999689         0.26635579961437433
57.99999999999689         0.25587179401349636
58.01999999999689         0.2497814929616173
58.03999999999688         0.24773789791793416
58.05999999999687         0.24962686240943543
58.07999999999686         0.2555584925766162
58.099999999996854        0.2658751379113723
58.11999999999685         0.281173316471492
58.13999999999683         0.30232563112534827
58.15999999999685         0.33044757823176124
58.17999999999683         0.3666112060187884
58.19999999999685         0.4107059105010996
58.21999999999684         0.45866961752650126
58.23999999999686         0.5013696388464663
58.259999999996886        0.5323437240743495
58.279999999996896        0.5488466031875384
58.29999999999691         0.5536179450370177
58.319999999996895        0.5487603313609979
58.339999999996884        0.5322285348142409
58.35999999999686         0.5012360252071603
58.37999999999684         0.45833903482269855
58.399999999996794        0.4102966017506406
58.41999999999678         0.366127653882404
58.439999999996736        0.3298849292616071
58.45999999999675         0.30167686400976135
58.47999999999672         0.2804290243821165
58.49999999999673         0.2650259604068909
58.51999999999671         0.254594945604029
58.53999999999671         0.24853632745558618
58.55999999999669         0.24650485775776837
58.57999999999669         0.24838700378281775
58.59999999999668         0.25429239886286803
58.61999999999667         0.26456180114557176
58.63999999999667         0.2797888901184805
58.659999999996664        0.30084205065445535
58.67999999999666         0.32883138910132054
58.69999999999665         0.3648237550751401
58.71999999999667         0.4087088314947122
58.73999999999667         0.4564484571388204
58.75999999999671         0.49893715402764693
58.77999999999671         0.5297607994103031
58.799999999996736        0.546182687859473
58.81999999999675         0.5509306226906485
58.839999999996735        0.5460973545611945
58.85999999999673         0.5296470807481655
58.8799999999967          0.49880587844818064
58.89999999999667         0.45611714399812336
58.91999999999662         0.40830688279986826
58.9399999999966          0.3643509653948999
58.95999999999657         0.3282830009071744
58.97999999999655         0.3002110749255852
58.99999999999655         0.27906710935619733
59.019999999996536        0.26373987904390916
59.039999999996525        0.2533579755602017
59.05999999999653         0.24732980265872737
59.07999999999651         0.24530974671299063
59.09999999999652         0.24718487004204664
59.119999999996494        0.2530643380039788
59.1399999999965          0.2632873510917965
59.15999999999648         0.27844483649174256
59.179999999996475        0.2994010913631431
59.19999999999647         0.3272609597781338
59.21999999999647         0.36308621874556307
59.23999999999648         0.4067668745896317
59.2599999999965          0.45428311116488873
59.27999999999653         0.49669473241609535
59.29999999999655         0.5272492842719895
59.31999999999656         0.5435929691477694
59.33999999999658         0.5483187100987851
59.35999999999657         0.5435097957760598
59.37999999999657         0.5271396309334453
59.399999999996524        0.496446201866218
59.419999999996485        0.45396028249309134
59.43999999999644         0.40637539244886345
59.45999999999641         0.36262597512794986
59.479999999996394        0.32672738792246564
59.49999999999637         0.29878742656943014
59.51999999999638         0.2777430875477661
59.53999999999637         0.26248839519451517
59.55999999999636         0.25215764766666343
59.579999999996346        0.2461572980294611
59.59999999999635         0.24414814491607834
59.61999999999635         0.246016229295888
59.63999999999633         0.25187024574388756
59.65999999999634         0.2620478592372681
59.67999999999632         0.27713730441886025
59.699999999996315        0.2979989099944575
59.71999999999631         0.32573238779398633
59.73999999999631         0.3613945507380245
59.75999999999632         0.4048757554672615
59.77999999999634         0.45217426557441376
59.79999999999637         0.4943906307624792
59.8199999999964          0.5248619421894284
59.839999999996415        0.541073097767711
59.859999999996425        0.5457770447341465
59.879999999996414        0.5409925165936909
59.89999999999641         0.5247011450300885
59.91999999999637         0.49415220567934803
59.93999999999633         0.4518640599647183
59.95999999999629         0.4044982863432266
59.97999999999626         0.3609494010209528
59.999999999996234        0.32521530429672496
60.019999999996216        0.29740355284441505
60.0399999999962          0.2764560493566484
60.059999999996194        0.26127189395166095
60.0799999999962          0.2509893654034228
60.09999999999619         0.24501845305314382
60.11999999999618         0.2430191507658189
60.13999999999617         0.24488044199909256
60.159999999996174        0.25070977026240127
60.17999999999617         0.26084331092249313
60.19999999999616         0.2758666882970885
60.21999999999616         0.2966364057123796
60.239999999996144        0.3242472456665854
60.25999999999614         0.3597512276907363
60.27999999999616         0.4030389907351348
60.299999999996174        0.45012602553068976
60.31999999999623         0.49215205095290726
60.33999999999624         0.5224851086923086
60.35999999999627         0.5386220329402767
60.37999999999627         0.5433044655966944
60.399999999996254        0.5385424234479025
60.419999999996264        0.5223261026466223
60.43999999999621         0.49191650178076746
60.45999999999617         0.4498202097186362
60.479999999996124        0.40266837529338245
60.4999999999961          0.359315831959366
60.51999999999608         0.32374284532562586
60.53999999999606         0.29605663739706056
60.55999999999605         0.2752039423667713
60.57999999999605         0.26008886268232656
60.599999999996044        0.24985359577691466
60.61999999999601         0.24391082423457205
60.63999999999603         0.24192210630884167
60.65999999999602         0.24377618104750365
60.67999999999601         0.249582447307029
60.69999999999602         0.2596732351885382
60.719999999996           0.2746324208286178
60.73999999999601         0.2953127750165727
60.75999999999598         0.32280429295005253
60.77999999999599         0.3581543322776364
60.799999999996           0.40125384366545047
60.81999999999603         0.4481353152217212
60.839999999996074        0.48997685671369284
60.85999999999609         0.5201763100999995
60.87999999999611         0.536241996392829
60.89999999999611         0.5409044004376756
60.91999999999611         0.536164314301876
60.93999999999609         0.5200227868928847
60.95999999999606         0.48974941617610607
60.97999999999602         0.4478399414615019
60.99999999999597         0.40089550349075637
61.019999999995946        0.3577329650895508
61.03999999999591         0.322315907256221
61.05999999999589         0.2947512900093084
61.079999999995884        0.2739904936699875
61.09999999999587         0.2589424307882345
61.11999999999587         0.2487530711878293
61.139999999995865        0.2428376927197125
61.15999999999586         0.2408593661305371
61.17999999999585         0.24270735580996708
61.199999999995846        0.24848905740320565
61.21999999999584         0.25854012279215766
61.23999999999583         0.27343723565546474
61.259999999995834        0.29403111616549776
61.27999999999582         0.3214071262950249
61.29999999999583         0.3566081285750513
61.31999999999584         0.3995253797418345
61.33999999999586         0.44620784158717
61.35999999999591         0.48787081979471786
61.379999999995924        0.5179409668281781
61.399999999995934        0.5339376588201358
61.419999999995945        0.5385804356195341
61.43999999999594         0.5338617408485092
61.45999999999592         0.5177341522648294
61.4799999999959          0.4875279831984939
61.49999999999586         0.4459197717623629
61.51999999999582         0.3991766530999382
61.539999999995786        0.35619890753286615
61.55999999999577         0.3209335376263843
61.57999999999574         0.2934871866203058
61.59999999999573         0.27281577421595865
61.61999999999572         0.2578329112201574
61.63999999999571         0.2476882501838172
61.65999999999571         0.24179960599178293
61.6799999999957          0.23983153038062216
61.69999999999568         0.24167380756055176
61.719999999995686        0.24743343138979007
61.739999999995675        0.25744266013389044
61.75999999999567         0.2722819018080637
61.77999999999567         0.29279226901821387
61.79999999999566         0.32005667497039886
61.819999999995666        0.35511365877757833
61.839999999995676        0.3978547903553965
61.85999999999571         0.44434495547184394
61.87999999999576         0.48583541345578973
61.89999999999578         0.5157806536948629
61.9199999999958          0.5317107313510222
61.93999999999579         0.5363346022384176
61.959999999995794        0.5316366474631276
61.979999999995776        0.5155777144256157
61.999999999995744        0.4854986224909423
62.019999999995704        0.4440592216350701
62.039999999995665        0.397515968345663
62.05999999999562         0.35471684189655384
62.07999999999561         0.3195981025776104
62.099999999995575        0.292266092598146
62.119999999995585        0.271681113267795
62.13999999999556         0.2567613070662434
62.15999999999555         0.2466598808218143
62.17999999999553         0.2407971017039397
62.19999999999554         0.23883896020579712
62.21999999999554         0.2406757463375581
62.23999999999553         0.2464140647634195
62.25999999999553         0.2563848651810603
62.27999999999552         0.27116516938181784
62.299999999995514        0.2916003788627008
62.31999999999551         0.3187524909441926