% Model:              Untitled.mph
% Version:            COMSOL 5.6.0.280
% Date:               Oct 5 2021, 10:19
% Dimension:          1
% Nodes:              1015
% Expressions:        1
% Description:        线图
% cln2x                   Height
21.52                     0.22907330851909316
21.539999999999996        0.23085102217642692
21.55999999999999         0.23637888628249007
21.58                     0.24597205435201336
21.599999999999998        0.2601881325482301
21.61999999999999         0.2798375431718881
21.63999999999999         0.3059610047428453
21.659999999999993        0.3395583853892423
21.679999999999996        0.3804984558716935
21.699999999999992        0.4249276035011039
21.719999999999995        0.46454423805122935
21.739999999999984        0.49329187384867507
21.759999999999987        0.5086278440762884
21.779999999999987        0.5131017389631075
21.799999999999986        0.5086652719473297
21.819999999999983        0.49341665210527097
21.839999999999996        0.46464209852494776
21.859999999999992        0.42504337176683193
21.87999999999999         0.38062183804074584
21.899999999999995        0.3396826658351474
21.919999999999984        0.30608295900668053
21.93999999999998         0.27995562890246584
21.959999999999987        0.2603012407693213
21.979999999999983        0.24607889192317633
21.999999999999986        0.23647617365571738
22.019999999999982        0.2309384241133546
22.039999999999985        0.22914725754589135
22.05999999999998         0.23099965578554357
22.079999999999984        0.23660021534921533
22.099999999999984        0.2462687650990771
22.119999999999983        0.26055984593750947
22.139999999999986        0.2802925394446376
22.159999999999986        0.30650857013576716
22.17999999999999         0.34021021723023803
22.199999999999996        0.3812656651787736
22.219999999999988        0.4258121388899387
22.239999999999984        0.465529535192531
22.259999999999987        0.49434907139305156
22.279999999999987        0.5097237185423555
22.299999999999986        0.5142099689454198
22.319999999999983        0.5097650713893345
22.339999999999982        0.4944840096262496
22.35999999999998         0.46576362470739513
22.379999999999992        0.42596953524226727
22.39999999999998         0.38144812842681675
22.419999999999977        0.3404221817951307
22.43999999999998         0.30675171871307255
22.459999999999976        0.28056986599768985
22.47999999999998         0.26087501437233035
22.49999999999998         0.2466240156393461
22.519999999999985        0.23700272220906818
22.53999999999998         0.23145530260730748
22.559999999999988        0.2296627241228274
22.57999999999998         0.23152180037435718
22.599999999999977        0.23713742476566446
22.619999999999987        0.24683020893510504
22.639999999999986        0.26115703440443633
22.659999999999982        0.28093582828633723
22.679999999999982        0.3072138174602541
22.69999999999998         0.3409945943964149
22.719999999999988        0.38214609208626615
22.73999999999998         0.4267967573119285
22.759999999999977        0.4666073992982562
22.77999999999997         0.4954950252193394
22.799999999999976        0.5109066047085778
22.819999999999975        0.5154043616431953
22.839999999999982        0.5109500814138775
22.859999999999978        0.49563444655363753
22.879999999999974        0.4668483934916155
22.899999999999984        0.42696309402757804
22.919999999999977        0.3822651941090543
22.939999999999976        0.34122007884150474
22.959999999999972        0.30747311358729484
22.979999999999972        0.2812322420215921
22.99999999999997         0.2614935345208977
23.01999999999997         0.24721141995765936
23.03999999999997         0.2375698675576662
23.05999999999997         0.23201177819080746
23.079999999999977        0.230217416127791
23.099999999999973        0.23208340811717626
23.11999999999997         0.23771496117326743
23.13999999999997         0.24743352339183436
23.15999999999997         0.26179738929682983
23.179999999999975        0.2816222297947247
23.199999999999974        0.3079502311001712
23.219999999999974        0.3418363380591396
23.239999999999974        0.38309078771028954
23.259999999999977        0.42785323360697664
23.279999999999966        0.46776402506637244
23.29999999999997         0.49672487845411345
23.31999999999997         0.5121762573140652
23.339999999999968        0.5166864387083431
23.35999999999997         0.5122219570015984
23.379999999999967        0.49686886825271237
23.399999999999967        0.4680120091624095
23.419999999999956        0.42802860543910387
23.43999999999997         0.3832212213255753
23.459999999999965        0.34202237922820145
23.479999999999958        0.3082470504418757
23.499999999999957        0.28194286672309077
23.519999999999964        0.262157039159929
23.539999999999957        0.24784142740129977
23.55999999999996         0.23817799159673234
23.57999999999996         0.23260827646999185
23.59999999999996         0.23081179287453207
23.619999999999965        0.23268496514999246
23.639999999999958        0.23833333247778032
23.65999999999996         0.24807923343680388
23.679999999999957        0.26248246848243273
23.699999999999957        0.2823608866252339
23.71999999999996         0.30875944725709237
23.739999999999956        0.3426822504995983
23.759999999999952        0.3841001287511988
23.779999999999955        0.4289818789584117
23.79999999999996         0.4689997523275641
23.81999999999995         0.4980390368592698
23.839999999999954        0.513533218673358
23.859999999999957        0.518056975720618
23.879999999999953        0.5135819687351747
23.899999999999952        0.4981893127371265
23.91999999999995         0.46925710981990426
23.939999999999948        0.42916896173198127
23.959999999999948        0.38424425638677134
23.979999999999954        0.3429377896758215
23.999999999999947        0.30905389954952756
24.019999999999946        0.28269801584646453
24.03999999999995         0.26286581127801933
24.05999999999995         0.24851408940706446
24.079999999999945        0.2388269743725082
24.099999999999948        0.2332445463824882
24.119999999999948        0.2314454994871269
24.13999999999995         0.233326032653779
24.15999999999995         0.2389920319092828
24.179999999999954        0.24876677952606605
24.19999999999995         0.26321167748999075
24.219999999999953        0.28314689520958747
24.23999999999995         0.30962034987410836
24.25999999999995         0.3436389986672367
24.279999999999948        0.3850986813686941
24.299999999999947        0.43018213967384655
24.319999999999943        0.47031350208278855
24.33999999999995         0.49943572895533833
24.359999999999946        0.5149748988555645
24.379999999999946        0.5195125381735877
24.39999999999995         0.5150256135724305
24.41999999999994         0.4995899709081512
24.43999999999994         0.47057696086380435
24.45999999999994         0.43037713187446175
24.479999999999936        0.38532809543263136
24.49999999999994         0.3439078377590464
24.519999999999943        0.3099309424329288
24.539999999999935        0.28350306478968157
24.55999999999993         0.2636181469862108
24.579999999999934        0.24922701833068703
24.59999999999993         0.2395146722093103
24.619999999999933        0.2339186070811632
24.639999999999926        0.23211665287211927
24.65999999999993         0.2340047685484305
24.679999999999932        0.23968920407006059
24.699999999999942        0.24949423523743056
24.719999999999928        0.2639829512106613
24.73999999999993         0.28397796616531334
24.759999999999934        0.3105303133989549
24.77999999999993         0.34464996117532565
24.79999999999993         0.3862325568552324
24.819999999999933        0.4314551554588524
24.839999999999936        0.4718182649494141
24.859999999999946        0.5009112284560704
24.87999999999994         0.5164982562121497
24.89999999999994         0.5210510550101071
24.919999999999927        0.5165523871869635
24.939999999999934        0.5010725210219791
24.95999999999993         0.47197506612191137
24.979999999999922        0.4316576505249244
24.999999999999922        0.3864766109620297
25.019999999999932        0.34493511392041076
25.039999999999925        0.31085908581506266
25.059999999999928        0.2843544891541905
25.079999999999924        0.26441227789765714
25.099999999999927        0.2499821641325008
25.119999999999923        0.24024082890649354
25.139999999999922        0.2346300350265561
25.159999999999922        0.23282470185811283
25.179999999999925        0.2347205157423861
25.19999999999993         0.240424094547161
25.21999999999993         0.2502607468436469
25.23999999999993         0.2647953247855423
25.259999999999923        0.2848530010519482
25.279999999999927        0.31148807062434025
25.299999999999926        0.34571365303499274
25.319999999999922        0.38742520399027675
25.33999999999992         0.43278839812635844
25.359999999999925        0.47327798359628553
25.379999999999924        0.5025182005023547
25.399999999999928        0.5181004972315918
25.419999999999924        0.5226690932061837
25.43999999999992         0.5181575580027857
25.459999999999923        0.5026303721173346
25.47999999999992         0.4734434226120212
25.499999999999915        0.4330019718881167
25.51999999999992         0.38768238346433437
25.539999999999917        0.34601389545753697
25.559999999999913        0.3118340450703181
25.57999999999991         0.28524906813709544
25.59999999999992         0.26524679782505617
25.61999999999991         0.2507737206839378
25.639999999999908        0.24100553873935124
25.659999999999908        0.23537851485041794
25.679999999999914        0.23356884489346746
25.699999999999914        0.23547272600710548
25.719999999999914        0.24119639357512107
25.739999999999913        0.25106624643082387
25.75999999999992         0.2656489960806636
25.779999999999916        0.28577251356648525
25.799999999999912        0.31249453503013486
25.81999999999991         0.3468315025164689
25.839999999999915        0.38867864162045523
25.859999999999914        0.43418951501367675
25.87999999999991         0.47481161967299845
25.899999999999917        0.5041482687134184
25.919999999999913        0.5197835642297406
25.939999999999916        0.5243676278987248
25.95999999999991         0.5198423515603342
25.979999999999905        0.5042653432613988
25.999999999999915        0.4749843555826371
26.01999999999991         0.43441265509178867
26.039999999999907        0.3889476217582208
26.0599999999999          0.34714584023743017
26.079999999999906        0.312857020057074
26.0999999999999          0.28618767769508896
26.119999999999905        0.266122365815979
26.139999999999905        0.2516041729309422
26.159999999999894        0.24180616764301138
26.179999999999904        0.23616283245528516
26.1999999999999          0.23434935079861724
26.2199999999999          0.23626161133885853
26.2399999999999          0.24200626468754657
26.2599999999999          0.2519108471514255
26.279999999999898        0.2665440187958912
26.29999999999991         0.2867364795998637
26.319999999999904        0.31354957360569363
26.3399999999999          0.34800322366641706
26.359999999999904        0.3899924003749954
26.3799999999999          0.43565793103908246
26.399999999999896        0.4764187131351694
26.419999999999895        0.505856193260163
26.4399999999999          0.5215460326959324
26.459999999999898        0.5261469321277118
26.479999999999908        0.5216063323255635
26.4999999999999          0.5059777690925418
26.519999999999904        0.47659819096384076
26.539999999999896        0.4358899943786504
26.559999999999896        0.39027257235916685
26.579999999999888        0.3483311401381146
26.59999999999989         0.31392814559879145
26.61999999999989         0.28717039472028844
26.639999999999894        0.26703900212682863
26.6599999999999          0.25247349070068187
26.679999999999893        0.24264415561375322
26.69999999999989         0.23698361284208297
26.719999999999892        0.23516599156690984
26.739999999999892        0.23708609678641518
26.759999999999888        0.24285330735318547
26.779999999999887        0.2527940328912282
26.79999999999989         0.26747973364072114
26.819999999999883        0.28774405687301924
26.8399999999999          0.31465210465366256
26.859999999999893        0.34922742326869355
26.879999999999892        0.39136472524330573
26.89999999999989         0.4371916253052393
26.919999999999888        0.47809725577199486
26.939999999999888        0.5076401141075944
26.95999999999989         0.523386974351809
26.979999999999887        0.5280053069506077
26.999999999999897        0.5234491580405541
27.019999999999893        0.5077094891932709
27.039999999999885        0.47828243068226106
27.05999999999988         0.4374314317166798
27.07999999999988         0.39165501065147523
27.09999999999988         0.34956802424804967
27.119999999999873        0.31504602825144
27.139999999999876        0.2881961014396524
27.15999999999988         0.26799578633828497
27.17999999999988         0.2533809003246154
27.199999999999886        0.2435188462671105
27.219999999999875        0.23784028586258976
27.23999999999987         0.23601825994159195
27.259999999999877        0.23794725465556274
27.279999999999877        0.24373555457372512
27.29999999999988         0.2537134043933661
27.31999999999988         0.26845576252919945
27.33999999999988         0.2887948929107889
27.359999999999875        0.3158018064352984
27.37999999999988         0.3505038202429318
27.399999999999874        0.3927953818717767
27.419999999999874        0.4387903711019711
27.439999999999877        0.4798469384708043
27.45999999999987         0.5094996404086413
27.47999999999988         0.5253059897572384
27.499999999999872        0.5299426086137288
27.519999999999886        0.5253705128094572
27.539999999999882        0.5095735410551484
27.55999999999988         0.4799199622426029
27.579999999999874        0.4390395293712612
27.599999999999874        0.39309715320748734
27.619999999999873        0.35085807554782816
27.639999999999876        0.3162117127710462
27.659999999999865        0.28926546031811423
27.679999999999872        0.26899311776316065
27.699999999999868        0.2543266187097351
27.71999999999987         0.24443033315459137
27.739999999999874        0.2387328631709532
27.75999999999987         0.23690609938425342
27.779999999999873        0.23884420049566463
27.799999999999862        0.24465590398542741
27.81999999999987         0.25467273366268406
27.83999999999987         0.26947079226302906
27.859999999999868        0.28988868534597084
27.879999999999868        0.31699832685767315
27.899999999999874        0.35183200731893643
27.919999999999874        0.39428390307767575
27.939999999999873        0.4404536313029911
27.959999999999866        0.48166713673074685
27.97999999999987         0.5114340451396497
27.99999999999986         0.5273022195074508
28.019999999999865        0.5319577702895322
28.039999999999868        0.5273689469567892
28.059999999999867        0.5115121886318125
28.079999999999874        0.4817464472152162
28.099999999999866        0.44070642037381613
28.11999999999986         0.39467363892424234
28.13999999999986         0.3521995010668961
28.159999999999854        0.3174238057089719
28.179999999999854        0.29037735554444627
28.199999999999857        0.2700300645299659
28.219999999999853        0.25530983201262397
28.239999999999853        0.2453778768327377
28.25999999999986         0.2396606557119538
28.27999999999986         0.23782884936812068
28.29999999999985         0.23977627228980192
28.319999999999858        0.2456121399722877
28.339999999999854        0.25566930414979105
28.359999999999854        0.2705261439239771
28.37999999999985         0.2910290120573293
28.399999999999856        0.3182406872858042
28.419999999999856        0.3532108664802535
28.439999999999866        0.3958290089622599
28.459999999999855        0.44217996111647706
28.47999999999986         0.48355628176572507
28.499999999999858        0.5134416975832684
28.51999999999986         0.5293740421362193
28.539999999999857        0.5340492441067337
28.55999999999986         0.529443061755839
28.579999999999853        0.5135242641547765
28.599999999999856        0.48364212274230584
28.61999999999986         0.44244194202109316
28.639999999999855        0.3962303242001152
28.659999999999847        0.3536471119261426
28.67999999999985         0.31868179896035037
28.699999999999843        0.2915313359716073
28.719999999999843        0.2711062368594362
28.739999999999846        0.2563302131737806
28.75999999999984         0.2463612120982683
28.779999999999838        0.24062346314962516
28.799999999999848        0.23878638505658517
28.819999999999844        0.24074342148895106
28.839999999999847        0.24660428468680645
28.859999999999843        0.256703210970842
28.879999999999843        0.2716209397016379
28.899999999999842        0.2922072594446504
28.919999999999845        0.3195505912692064
28.93999999999984         0.3546963717011282
28.95999999999984         0.39743134383026385
28.97999999999985         0.44397013772843213
28.99999999999985         0.4855152185160112
29.01999999999985         0.5155234600516524
29.03999999999985         0.5315223202717045
29.059999999999846        0.5362179497441504
29.079999999999846        0.5315939398366726
29.099999999999845        0.5156110940204012
29.11999999999984         0.4856084830329843
29.13999999999984         0.4442423616192414
29.159999999999844        0.3978451799689394
29.179999999999836        0.3550914616588404
29.199999999999836        0.32000792744178425
29.219999999999832        0.29272809653118226
29.239999999999835        0.2722222068715351
29.259999999999835        0.2573882401120153
29.279999999999834        0.24738074179990288
29.299999999999837        0.24162162512564633
29.319999999999833        0.2397789946199537
29.33999999999984         0.24174589846963293
29.359999999999832        0.24763254743322155
29.379999999999832        0.25777460801193963
29.39999999999983         0.27275526232068087
29.419999999999828        0.2934278450623837
29.43999999999983         0.320885306647714
29.459999999999837        0.35617746252187465
29.47999999999983         0.3991680514379591
29.499999999999833        0.4458235045193708
29.519999999999843        0.48754344490808055
29.539999999999836        0.5176790884152482
29.559999999999835        0.5337470702778784
29.579999999999835        0.5384639317877139
29.599999999999838        0.5338213099236937
29.619999999999834        0.5177718261965317
29.639999999999837        0.48764418683566113
29.65999999999983         0.4461060613028303
29.679999999999822        0.39951682015881956
29.699999999999832        0.35658675150704
29.719999999999825        0.3213589403122728
29.739999999999824        0.29397181648180226
29.75999999999982         0.2733767799838029
29.779999999999816        0.258483938265277
29.799999999999812        0.2484366038910468
29.819999999999826        0.2426553771844791
29.839999999999826        0.2408070084208242
29.85999999999982         0.2427841425536998
29.879999999999825        0.24869750909066385
29.89999999999982         0.25888425594022507
29.919999999999828        0.27393010651603966
29.93999999999982         0.29469209094936405
29.95999999999982         0.32226788574532883
29.97999999999982         0.35771187117253633
29.99999999999982         0.40088734929936726
30.019999999999822        0.447738521299921
30.039999999999832        0.48952310965304413
30.059999999999828        0.5199111167705954
30.079999999999824        0.5360498316018635
30.09999999999982         0.5407880703927282
30.119999999999827        0.5361257706019633
30.13999999999982         0.5200069773783977
30.15999999999982         0.48974971694155445
30.179999999999815        0.4480334778553327
30.199999999999815        0.40124558406369315
30.21999999999982         0.35813320746117855
30.23999999999982         0.32275626339956676
30.25999999999981         0.2952536020333135
30.27999999999981         0.27457210557218104
30.299999999999812        0.2596151841286006
30.31999999999981         0.24952864367833497
30.339999999999808        0.24372447349040569
30.359999999999808        0.2418700711823039
30.379999999999814        0.2438576616667216
30.399999999999817        0.24979850571247442
30.419999999999817        0.26003127346756755
30.439999999999813        0.27514430124697903
30.45999999999981         0.29599842459622683
30.479999999999812        0.32369618621310653
30.499999999999808        0.35929666381007863
30.51999999999981         0.4026627382150853
30.53999999999981         0.4497212829534517
30.55999999999981         0.4916920109000872
30.579999999999814        0.5221590624006768
30.599999999999813        0.538428473826642
30.619999999999813        0.5431889907583097
30.63999999999981         0.5385063165071461
30.659999999999815        0.5223157203161589
30.679999999999808        0.4919243556458786
30.699999999999804        0.4500239826480842
30.719999999999803        0.40303089350504373
30.739999999999803        0.3597302603721843
30.75999999999981         0.32419930634734423
30.77999999999981         0.29657730162886947
30.7999999999998          0.275806445353241
30.8199999999998          0.26078533957850314
30.8399999999998          0.2506544700008016
30.859999999999804        0.24482801343617452
30.879999999999804        0.24296717158569492
30.899999999999796        0.2449653171531619
30.919999999999803        0.25093425335764075
30.93999999999981         0.26121421381724275
30.959999999999802        0.27639622199202885
30.97999999999981         0.2973450284472694
30.9999999999998          0.32516818305510603
31.019999999999797        0.36092959862313606
31.0399999999998          0.4044917334084915
31.059999999999803        0.45176367059913236
31.0799999999998          0.4939260403482605
31.099999999999802        0.5245332011742109
31.119999999999806        0.5408777175941035
31.139999999999798        0.5456617488010008
31.159999999999798        0.5409584872106092
31.1799999999998          0.5246924704702859
31.199999999999797        0.4941624421378057
31.219999999999796        0.45207213001736213
31.239999999999796        0.40486794713344304
31.259999999999803        0.3613738696270987
31.279999999999795        0.32568467210379876
31.299999999999795        0.29794001934273673
31.319999999999794        0.27707729760271443
31.33999999999979         0.26199015922285285
31.35999999999979         0.2518152583890752
31.37999999999979         0.24596335861839186
31.39999999999979         0.24409658283478308
31.419999999999796        0.24610545305956585
31.439999999999802        0.25210312338495144
31.459999999999802        0.2624314377530073
31.4799999999998          0.2776841796566734
31.49999999999979         0.2987301212183723
31.51999999999979         0.3266819560978583
31.53999999999979         0.3626085663138359
31.55999999999979         0.4063719919574715
31.579999999999796        0.453863098011631
31.59999999999979         0.4962224341836873
31.619999999999788        0.5269737268668399
31.639999999999787        0.5433965029811295
31.659999999999794        0.548204367212049
31.67999999999978         0.5434798029047666
31.699999999999783        0.5271380855745941
31.719999999999775        0.4964663275340155
31.73999999999978         0.4541812130076645
31.75999999999979         0.4067596454174864
31.77999999999978         0.3630660099549839
31.799999999999766        0.32721356287301046
31.819999999999773        0.2993424471584142
31.83999999999978         0.27838505739034836
31.859999999999783        0.2632298824607066
31.879999999999775        0.2530095956586363
31.899999999999775        0.247132263342662
31.919999999999774        0.24525847223816635
31.939999999999774        0.24727907357450776
31.95999999999978         0.253305383280876
31.979999999999766        0.2636832989046068
31.999999999999773        0.27900863473043436
32.019999999999776        0.30015429369430163
32.03999999999977         0.32823825461507644
32.05999999999978         0.36433450689337554
32.079999999999764        0.408304666059356
32.099999999999774        0.45602088961727555
32.11999999999978         0.49858255371561483
32.13999999999979         0.5294818906475404
32.159999999999776        0.5459849813259107
32.17999999999978         0.550817095255698
32.19999999999978         0.5460701467459099
32.21999999999978         0.5297082789274522
32.239999999999775        0.4988319833253187
32.25999999999977         0.45634643784012624
32.27999999999976         0.40870185621536753
32.29999999999977         0.36480377552819326
32.319999999999766        0.3287841256765096
32.33999999999977         0.30078348968655144
32.359999999999765        0.2797291694982295
32.37999999999977         0.2645043675358064
32.399999999999764        0.25423765943868093
32.419999999999774        0.24833435641850513
32.43999999999976         0.24645348510718773
32.459999999999766        0.2484854253511116
32.47999999999977         0.25454367532714023
32.499999999999766        0.26497312054907873
32.51999999999976         0.28037104536908963
32.539999999999765        0.3016192487538016
32.55999999999977         0.3298390662000005
32.57999999999977         0.3661097427434842
32.59999999999977         0.4102924626529346
32.619999999999784        0.45824015872854984
32.63999999999977         0.5010098901249134
32.659999999999776        0.5320615203265648
32.67999999999977         0.5486473374569375
32.699999999999775        0.5535046979020594
32.71999999999977         0.5487353847316041
32.73999999999976         0.5322940719139343
32.75999999999977         0.5013922784278401
32.77999999999977         0.45857697841305556
32.79999999999976         0.4107029459701251
32.81999999999976         0.3665942654139786
32.83999999999976         0.330402467746228
32.85999999999975         0.3022686411158781
32.879999999999754        0.28111481144468803
32.89999999999975         0.2658187069914489
32.919999999999746        0.255504634190373
32.93999999999975         0.24957504001892286
32.95999999999975         0.24768734697941747
32.97999999999975         0.249731457792718
32.999999999999744        0.255821486671687
33.019999999999754        0.2663040774910498
33.03999999999976         0.28178062771023354
33.059999999999754        0.3031340433230549
33.07999999999976         0.3314945838370411
33.09999999999975         0.3679458201103507
33.119999999999756        0.41234849060508644
33.13999999999975         0.46053567638703596
33.15999999999977         0.5035207137670185
33.17999999999975         0.5347299155790843
33.199999999999754        0.5514011753570364
33.21999999999976         0.5562840742194218
33.23999999999975         0.5514902748518575
33.25999999999975         0.5349647716933896
33.27999999999975         0.5039070903970629
33.29999999999976         0.4608832256651542
33.31999999999975         0.41268730374286594
33.33999999999976         0.3684430019707576
33.359999999999744        0.3320747585682771
33.37999999999975         0.3038044257989576
33.39999999999975         0.2825486550859616
33.41999999999974         0.2671796172159769
33.43999999999974         0.25681726578433317
33.45999999999974         0.25086109822886826
33.47999999999974         0.248966905268145
33.49999999999974         0.2510241279573851
33.51999999999974         0.25714754275156687
33.539999999999736        0.26768563311525795
33.55999999999974         0.28324293418396085
33.57999999999973         0.30470228036541563
33.599999999999746        0.3332137113789265
33.61999999999974         0.3698524885540773
33.63999999999974         0.4144835594724656
33.659999999999734        0.4629195197036766
33.679999999999744        0.5061284637373016
33.69999999999976         0.537501748724683
33.71999999999974         0.5542622838590662
33.739999999999746        0.5591722753187359
33.75999999999975         0.5543537926906176
33.77999999999975         0.5377418188833283
33.79999999999974         0.5065229980275503
33.819999999999744        0.46327741946345147
33.83999999999975         0.4148353223330422
33.859999999999744        0.37030845487379443
33.87999999999975         0.33381422043605463
33.89999999999973         0.3054016651757289
33.91999999999973         0.2840396975718468
33.93999999999973         0.2685946782437702
33.95999999999973         0.25818202147881847
33.97999999999973         0.2521981183227949
33.99999999999973         0.2502970236489347
34.01999999999973         0.2523676878029644
34.03999999999973         0.2585255706376007
34.05999999999975         0.26912105948385423
34.07999999999973         0.28476193903556546
34.099999999999724        0.3063357596755228
34.119999999999735        0.33497636159324146
34.13999999999972         0.37177368257546445
34.15999999999973         0.41669949131060585
34.17999999999973         0.4653934232199797
34.19999999999973         0.5088348653601479
34.21999999999974         0.540378764007653
34.239999999999746        0.5572324163327225
34.259999999999735        0.5621710179629864
34.27999999999973         0.5573275326822866
34.299999999999734        0.5406265934857258
34.31999999999973         0.5092411746016487
34.339999999999726        0.46576587358904004
34.35999999999973         0.4170681129765857
34.379999999999725        0.37230741903953557
34.39999999999972         0.3356000432362852
34.41999999999974         0.30706215041020707
34.43999999999973         0.2855899669841556
34.459999999999724        0.270066155819279
34.47999999999971         0.25960141298582606
34.49999999999973         0.2535889033620437
34.519999999999726        0.2516808439335772
34.53999999999972         0.25376566099462294
34.55999999999971         0.25995953152275153
34.57999999999972         0.2706148304875675
34.59999999999974         0.28634272894837554