% Model:              Untitled.mph
% Version:            COMSOL 5.6.0.280
% Date:               Oct 14 2021, 22:08
% Dimension:          1
% Nodes:              994
% Expressions:        1
% Description:        线图
% cln1x                   Height
49.24999999999999         0.20706600700631017
49.260000000000076        0.20563334024911187
49.280000000000086        0.20360993061338567
49.300000000000104        0.20270592462645495
49.32000000000011         0.2029730295217966
49.34000000000012         0.2045335873726583
49.36000000000011         0.20759756283768901
49.38000000000013         0.21248838336260475
49.400000000000134        0.21967607649657794
49.420000000000144        0.2298006510611263
49.440000000000154        0.2436081960909272
49.460000000000164        0.26156830266432995
49.48000000000015         0.28257369044361813
49.50000000000016         0.3030615033373017
49.520000000000174        0.3190984408119719
49.540000000000205        0.3284108623083394
49.560000000000194        0.3311010464376253
49.58000000000019         0.3276807814741151
49.60000000000019         0.3175401142678759
49.62000000000021         0.30045292471672314
49.6400000000002          0.27861027030441515
49.66000000000021         0.255988477873734
49.680000000000234        0.2362079033100068
49.70000000000021         0.22038266600635198
49.72000000000022         0.208121042925306
49.74000000000024         0.19869771972856395
49.760000000000254        0.1914727697118516
49.78000000000025         0.1859603909041396
49.80000000000025         0.18181098095468368
49.82000000000027         0.17878026400703664
49.840000000000266        0.17670386007284988
49.86000000000028         0.17547993419739707
49.88000000000028         0.17505878298496208
49.90000000000029         0.17543801895813363
49.92000000000031         0.17666265000228593
49.940000000000296        0.17883009014331172
49.96000000000031         0.1821007912092678
49.98000000000032         0.18671574716984266
50.00000000000033         0.19302142762885421
50.02000000000034         0.20150473165968916
50.04000000000033         0.21280762314720056
50.060000000000365        0.22765576186472086
50.08000000000035         0.24642670317604393
50.10000000000036         0.26795984988992194
50.12000000000035         0.28863848305292383
50.140000000000356        0.3046373568311877
50.160000000000366        0.3138684776147385
50.18000000000036         0.31660344165217597
50.20000000000038         0.3134613962946048
50.22000000000038         0.3038196414590483
50.240000000000386        0.2873575000908775
50.260000000000396        0.26612595312375603
50.280000000000406        0.2440400633519294
50.300000000000416        0.22465038544158542
50.320000000000405        0.2091469834600624
50.34000000000043         0.19716795590521863
50.36000000000043         0.18799792153382858
50.38000000000044         0.18099964436917332
50.400000000000446        0.17569001096859185
50.42000000000046         0.1717219513001594
50.44000000000047         0.1688534580527776
50.46000000000046         0.16692235046420914
50.48000000000047         0.16582899082929178
50.500000000000476        0.16552582438417351
50.520000000000486        0.16601251256025062
50.54000000000049         0.1673359989346478
50.56000000000051         0.16959515055426835
50.58000000000051         0.17295257371458111
50.60000000000052         0.17765043613080728
50.62000000000053         0.18403669366312686
50.640000000000526        0.1925953696478183
50.66000000000054         0.20396272407231905
50.68000000000056         0.21884743326133577
50.70000000000054         0.23759341303701667
50.72000000000055         0.2589962597119978
50.740000000000556        0.27943077004145467
50.76000000000056         0.295145075300803
50.78000000000056         0.3041536226847795
50.800000000000566        0.30680606307571134
50.82000000000058         0.30375237004148486
50.84000000000057         0.2943265220470001
50.860000000000575        0.2781679461515383
50.88000000000058         0.2572594365293453
50.9000000000006          0.23534284026302585
50.92000000000062         0.21604274055401237
50.94000000000062         0.20057486621450052
50.96000000000063         0.18860792753693104
50.980000000000636        0.179442476535935
51.00000000000064         0.17244818101202142
51.02000000000065         0.1671445684632869
51.04000000000065         0.16318545897955944
51.06000000000068         0.16032910255478697
51.080000000000666        0.15841339494395404
51.10000000000067         0.15733878648190136
51.12000000000067         0.15705770244895298
51.14000000000069         0.15757002289236063
51.16000000000069         0.15892282108615607
51.1800000000007          0.16121540737561646
51.20000000000071         0.1646098055607748
51.22000000000071         0.16934790321596352
51.24000000000071         0.1757761060289573
51.26000000000073         0.18437438015453939
51.28000000000072         0.1957696363762069
51.30000000000074         0.2106513090353324
51.32000000000075         0.2293299376229253
51.34000000000075         0.2505633226421679
51.36000000000075         0.27072974821774853
51.380000000000734        0.2861813546969015
51.40000000000074         0.29495640821147573
51.42000000000074         0.2975346782832533
51.440000000000765        0.2945742054135363
51.46000000000077         0.2853832084416291
51.48000000000077         0.26953673455448773
51.50000000000078         0.24892469417249197
51.52000000000079         0.22721156003203474
51.540000000000816        0.20801831523918726
51.56000000000083         0.19259604831813398
51.58000000000084         0.18064469798788788
51.60000000000083         0.17148275520003586
51.62000000000085         0.16448853232631927
51.64000000000084         0.1591853429465003
51.66000000000085         0.15522892349017883
51.68000000000085         0.15237724702281674
51.70000000000087         0.15046900093467852
51.72000000000089         0.14940469304799314
51.74000000000088         0.14913691321413117
51.760000000000886        0.14966549464173654
51.7800000000009          0.15103753349726368
51.800000000000885        0.15335225719462123
51.82000000000092         0.15677132099648508
51.840000000000906        0.16153554815449306
51.860000000000916        0.16798875132806515
51.880000000000926        0.1766053732311248
51.90000000000094         0.18800129653732126
51.92000000000093         0.20282653394781266
51.94000000000094         0.22138268127960078
51.960000000000946        0.24242100009020234
51.98000000000094         0.2623321108978673
52.00000000000094         0.277458278137037
52.020000000000934        0.2860264096906503
52.04000000000095         0.2885365289615337
52.06000000000094         0.28565770616102665
52.08000000000096         0.27668791114546726
52.10000000000098         0.26115287725029274
52.12000000000098         0.2408607079077292
52.140000000000995        0.2193857022767286
52.160000000001           0.200329709881132
52.18000000000104         0.18497368079192025
52.20000000000103         0.17304894727532466
52.22000000000105         0.1638983798655192
52.24000000000106         0.15690738275625848
52.26000000000104         0.15160561603150122
52.28000000000106         0.1476512435261569
52.30000000000107         0.14480430133331143
52.32000000000107         0.14290340424192394
52.34000000000109         0.1418492749412582
52.36000000000108         0.14159459521521967
52.380000000001104        0.14213921952344036
52.40000000000111         0.14353018251983415
52.42000000000112         0.1458664883168457
52.44000000000114         0.14930921692698235
52.46000000000112         0.15409785143764534
52.48000000000113         0.16057377904399894
52.50000000000115         0.16920235538277267
52.52000000000115         0.18058521834180458
52.54000000000114         0.19536544737452102
52.560000000001146        0.21379441952504113
52.58000000000116         0.23460276342523834
52.600000000001124        0.25420498402767067
52.62000000000113         0.2690376290741863
52.64000000000112         0.2774069099553465
52.66000000000113         0.2798556902584107
52.68000000000113         0.27705926171214484
52.700000000001125        0.26830909193601216
52.72000000000114         0.2530870539986387
52.74000000000116         0.23311236027155344
52.760000000001185        0.21187099004813953
52.7800000000012          0.19297940103924255
52.80000000000121         0.17771357996189788
52.82000000000125         0.16583088907266882
52.84000000000124         0.15669523670944394
52.86000000000126         0.1497103846550873
52.880000000001246        0.1444120951423485
52.90000000000125         0.14046150508134223
52.92000000000126         0.13762008447242274
52.94000000000126         0.13572711729431647
52.96000000000128         0.13468360147474545
52.98000000000128         0.13444229804145838
53.00000000000127         0.1350030151407487
53.02000000000129         0.13641284739548043
53.0400000000013          0.138770006171689
53.06000000000132         0.14223475903074478
53.08000000000131         0.1470445840869741
53.10000000000133         0.15353614526892387
53.120000000001326        0.16216905529223624
53.14000000000133         0.17353033575684199
53.16000000000133         0.18823968672441538
53.180000000001336        0.20651664577072584
53.20000000000134         0.22706930663938305
53.22000000000133         0.2463427152833753
53.24000000000134         0.26087024604441755
53.26000000000132         0.2690351343737869
53.28000000000132         0.27141886501493734
53.300000000001326        0.2687020807692082
53.32000000000134         0.2601912993013538
53.34000000000136         0.24530029636410508
53.360000000001385        0.22564508193552302
53.38000000000139         0.20468548067751866
53.400000000001405        0.18597422515467815
53.420000000001416        0.17080880684651098
53.440000000001426        0.15897738952816787
53.460000000001436        0.1498667178582639
53.48000000000145         0.14289425180924667
53.500000000001464        0.13760320168045131
53.52000000000147         0.13365855275515087
53.54000000000147         0.1308237011240184
53.56000000000147         0.12893877261841707
53.58000000000149         0.12790559165936813
53.60000000000149         0.12767695821729771
53.62000000000149         0.1282527804906349
53.6400000000015          0.12967971009976428
53.66000000000151         0.13205566617116152
53.680000000001506        0.13553947821837178
53.700000000001516        0.14036617071893384
53.720000000001534        0.14686781059340237
53.74000000000154         0.15549554199417143
53.76000000000154         0.16682146676333584
53.78000000000154         0.18144147143684847
53.80000000000154         0.19954471705180968
53.82000000000152         0.21982092374976006
53.840000000001524        0.2387170016104143
53.860000000001506        0.25294356812514246
53.880000000001495        0.2609245877693911
53.90000000000151         0.2632458637442775
53.920000000001515        0.2606082421338532
53.94000000000152         0.2523193354181991
53.96000000000155         0.23775855262179227
53.98000000000156         0.2184684312545549
54.000000000001606        0.19781021384128095
54.020000000001595        0.17929968349178949
54.040000000001605        0.16425139729815905
54.060000000001615        0.15248318035240355
54.080000000001625        0.14340529859936885
54.10000000000166         0.13645004302321412
54.120000000001646        0.13116846217771475
54.14000000000165         0.12723160700458935
54.16000000000166         0.12440446019605549
54.18000000000168         0.1225285297487625
54.20000000000168         0.12150591957802581
54.22000000000169         0.12128981248847014
54.24000000000169         0.12187991817864707
54.260000000001696        0.12332243807967111
54.28000000000169         0.1257145320457795
54.30000000000171         0.12921363167517336
54.3200000000017          0.13405201831836314
54.340000000001744        0.14055652870827545
54.36000000000174         0.14916895935415064
54.380000000001736        0.1604529063969319
54.40000000000174         0.17497849513362063
54.42000000000174         0.19289974451430844
54.44000000000174         0.21286045116032698
54.4600000000017          0.23139286071436485
54.48000000000171         0.2453044851432728
54.50000000000172         0.25307927045574447
54.52000000000173         0.2553365763193104
54.54000000000171         0.2527788563690981
54.560000000001736        0.24471354375671317
54.58000000000174         0.23048863424714602
54.600000000001764        0.21157524571702732
54.620000000001816        0.19123500152874515
54.640000000001805        0.17294293432251212
54.66000000000182         0.15803449609245568
54.680000000001826        0.14633532702516236
54.700000000001836        0.13729643560382138
54.72000000000186         0.13036325079990838
54.740000000001864        0.12509562595412607
54.76000000000186         0.12116803917407634
54.780000000001856        0.11834915203506212
54.800000000001866        0.11648204189063212
54.82000000000188         0.11546960075439029
54.84000000000189         0.11526529914243902
54.860000000001904        0.1158687370035605
54.8800000000019          0.11732556743916003
54.9000000000019          0.11973176113370514
54.920000000001934        0.12324254838775525
54.940000000001916        0.12808571593310142
54.960000000001955        0.1345839242395169
54.98000000000194         0.1431693298599676
55.00000000000195         0.1543844165374098
55.020000000001936        0.16878007431334718
55.040000000001946        0.18648201584718851
55.060000000001935        0.20612399423272842
55.080000000001924        0.2242845404427209
55.10000000000192         0.23787241458541722
55.12000000000192         0.24543862431446303
55.140000000001905        0.2476325297618724
55.16000000000192         0.24515637725965886
55.18000000000193         0.23731854879583855
55.20000000000194         0.2234030404708595
55.22000000000198         0.20492472915572463
55.24000000000201         0.18494641937352702
55.260000000002016        0.16688520465272985
55.280000000002026        0.15211057037520342
55.30000000000206         0.14050298612187373
55.320000000002054        0.1315171311940114
55.34000000000207         0.12461468766786213
55.36000000000208         0.1193656573631515
55.380000000002084        0.11545055816126575
55.400000000002066        0.11264156751106034
55.42000000000209         0.1107837873544625
55.4400000000021          0.10978122926639255
55.46000000000211         0.10958781596425081
55.48000000000213         0.11020287187187923
55.500000000002125        0.11167156986653481
55.52000000000214         0.11408847888201883
55.54000000000214         0.11760647326457906
55.56000000000215         0.12245017399426482
55.580000000002165        0.12893388482465212
55.60000000000216         0.13747925888762208
55.62000000000217         0.1486117349488306
55.64000000000217         0.16285889032403747
55.660000000002164        0.1803219033614134
55.68000000000215         0.199628734701369
55.70000000000214         0.21740768890366355
55.72000000000212         0.23066761484921144
55.740000000002105        0.23802436754563402
55.7600000000021          0.2401546689438157
55.780000000002104        0.23775845660827677
55.80000000000213         0.23012705397956507
55.82000000000214         0.21658005948425588
55.84000000000217         0.1985021361103055
55.86000000000221         0.17887910169609764
55.88000000000223         0.16107862706849338
55.90000000000223         0.14647551574516163
55.920000000002254        0.1349742225118332
55.94000000000226         0.12605242776258138
55.960000000002275        0.1191885650273056
55.98000000000227         0.11396352394050117
56.000000000002295        0.11006451610001479
56.02000000000229         0.10726795627282416
56.04000000000231         0.10542049540122017
56.06000000000232         0.10442768630060521
56.080000000002315        0.10424384053585799
56.10000000000234         0.10486833105411841
56.12000000000233         0.10634550988542121
56.14000000000233         0.10876854470855656
56.16000000000235         0.11228752202237391
56.180000000002345        0.1171223734599517
56.200000000002376        0.12357989451668906
56.22000000000237         0.13207005143600656
56.24000000000237         0.14310098589546594
56.26000000000235         0.15717740722935064
56.28000000000235         0.1743780252055524
56.300000000002356        0.19332231467638517
56.32000000000234         0.21074909079897536
56.34000000000232         0.22366027544689665
56.36000000000231         0.23078456364300934
56.38000000000231         0.2328498286105579
56.40000000000232         0.23053480833931045
56.420000000002354        0.2231324764246376
56.44000000000235         0.2099384567324978
56.460000000002374        0.19227536282321323
56.4800000000024          0.17302895341099991
56.50000000000243         0.1555129016958397
56.520000000002454        0.14110328404906414
56.54000000000246         0.12972658714114021
56.560000000002475        0.1208830236752157
56.5800000000025          0.11406890242572489
56.60000000000249         0.10887503557940949
56.62000000000249         0.10499681786142952
56.64000000000251         0.10221507882886775
56.66000000000251         0.10037986975633603
56.68000000000252         0.09939775225039282
56.700000000002525        0.0992235755688883
56.72000000000254         0.09985644146824285
56.74000000000253         0.10133957757734414
56.76000000000256         0.10376410869962598
56.78000000000255         0.10727698292228202
56.800000000002555        0.11209325080336682
56.82000000000258         0.11851191549964428
56.84000000000256         0.12692923508637838
56.86000000000257         0.13783334783911233
56.880000000002575        0.15170512119733623
56.90000000000257         0.1686122102598663
56.92000000000255         0.18721449423497508
56.94000000000255         0.204234133567275
56.96000000000253         0.2168045338555566
56.98000000000252         0.22371582264085346
57.000000000002515        0.22571676447339925
57.02000000000251         0.22348259417835353
57.04000000000255         0.2163103073363604
57.06000000000255         0.20347411416546035
57.080000000002585        0.1862366100664369
57.100000000002616        0.16738361453639553
57.12000000000265         0.1501519033635704
57.14000000000267         0.13596852376378873
57.16000000000268         0.12474037929167184
57.180000000002686        0.11599153533773195
57.20000000000273         0.10923697599612685
57.2200000000027          0.10408224142137422
57.24000000000271         0.10023026362553135
57.26000000000271         0.09746691334139965
57.28000000000271         0.09564532193367165
57.30000000000274         0.09467377890978505
57.32000000000274         0.09450785465044224
57.34000000000276         0.09514647536417481
57.36000000000275         0.09663175797391024
57.38000000000277         0.0990526029296548
57.400000000002784        0.10255286753493136
57.42000000000277         0.10734044976621371
57.44000000000279         0.1137057156772576
57.4600000000028          0.12203313945700014
57.4800000000028          0.13279428099771282
57.5000000000028          0.14644907722641592
57.52000000000279         0.16304813305799878
57.54000000000277         0.18125773180292876
57.560000000002745        0.19785931357838946
57.58000000000272         0.21008528843091012
57.60000000000271         0.2167838827657874
57.62000000000272         0.21872109577026838
57.6400000000027          0.2165676698102403
57.66000000000275         0.2096471352895753
57.680000000002764        0.19718859562573215
57.70000000000278         0.18034499138251608
57.72000000000283         0.16187820560950894
57.74000000000285         0.1450032967295682
57.76000000000287         0.13105613518545464
57.78000000000289         0.1199905277982816
57.80000000000289         0.11135086603110247
57.82000000000292         0.1046690443413678
57.84000000000291         0.09956290964645684
57.86000000000291         0.09574379589755977
57.88000000000292         0.09300306801419708
57.90000000000294         0.09119726530931989
57.92000000000294         0.09023656249556498
57.940000000002954        0.09007729798877455
57.96000000000297         0.09071814602765171
57.98000000000297         0.09220000873974676
58.00000000000297         0.09460945053107739
58.02000000000298         0.09808569943375132
58.04000000000298         0.10283166375363978
58.06000000000301         0.10912818817459714
58.080000000003004        0.11734685836804495
58.10000000000301         0.12794221440306597
58.120000000003           0.1413547679610235
58.14000000000299         0.15762053567339904
58.16000000000298         0.17541552433591598
58.180000000002956        0.1915833887170173
58.20000000000292         0.20345600575317577
58.22000000000292         0.20993710847800148
58.240000000002915        0.2118105012100582
58.26000000000293         0.2097394844436434
58.28000000000294         0.20305175105587442
58.30000000000295         0.19096353887527062
58.320000000003           0.1745704485759104
58.340000000003016        0.15653513965705573
58.36000000000305         0.1400109191719259
58.380000000003086        0.12632401903631962
58.40000000000309         0.11544274563470518
58.42000000000311         0.10693068149040598
58.44000000000313         0.10033626210585872
58.46000000000312         0.09528973678855365
58.48000000000312         0.0915106852872142
58.50000000000313         0.0887974381072357
58.52000000000315         0.0870095797912062
58.540000000003154        0.0860594090502476
58.56000000000316         0.08590404117912748
58.580000000003174        0.08654182860341482
58.60000000000316         0.08801219611108407
58.62000000000318         0.09039887228549923
58.640000000003184        0.09383670546505384
58.660000000003194        0.09852218370666645
58.68000000000321         0.1047268938045111
58.7000000000032          0.11280954701423893
58.72000000000321         0.12320794525094986
58.74000000000321         0.13634379262206586
58.760000000003195        0.15226908577541567
58.780000000003184        0.16959020866674554
58.80000000000315         0.18525807550229567
58.82000000000311         0.19678057333799875
58.84000000000314         0.20306101789369738
58.860000000003126        0.2048681679963902
58.88000000000313         0.20287719964566092
58.90000000000316         0.19642279832532747
58.92000000000317         0.18470919906211752
58.9400000000032          0.16877648802248119
58.96000000000325         0.15118480058072825
58.98000000000325         0.1350207230102996
59.00000000000328         0.1215975345501748
59.0200000000033          0.11089589684907271
59.04000000000332         0.10249675564734055
59.06000000000334         0.09596399694093102
59.08000000000333         0.09093985698394559
59.10000000000334         0.08715138331591767
59.120000000003344        0.08439985479866642
59.140000000003354        0.08254704999027655
59.16000000000335         0.08150455744914957
59.18000000000336         0.08122675098802877
59.20000000000338         0.08170722884745465
59.22000000000338         0.08297848185404266
59.240000000003384        0.08511480963193181
59.26000000000339         0.08823873117897717
59.2800000000034          0.09253104364680421
59.30000000000338         0.09824366430923837
59.320000000003425        0.10571478883149195
59.34000000000343         0.11535831857468715
59.36000000000342         0.12757584165269145
59.380000000003406        0.14237985642590925
59.40000000000338         0.15848841461862273
59.42000000000337         0.17299804971498398
59.44000000000334         0.18362641422166276
59.46000000000334         0.18937356573796718
59.48000000000333         0.19101685534199828
59.500000000003325        0.18920596005408405
59.52000000000335         0.18330093755079047
59.540000000003374        0.17250119763247249
59.560000000003406        0.1577502730669822
59.580000000003444        0.14142303896300748
59.600000000003476        0.12637994400646937
59.6200000000035          0.11390648738699158
59.64000000000353         0.10399379710085574
59.66000000000352         0.0962433984509048
59.680000000003524        0.09024275476133649
59.70000000000354         0.08565603545649533
59.72000000000355         0.08223042661359796
59.74000000000355         0.0797838378149611
59.76000000000356         0.07819166505210925
59.78000000000356         0.07737663623618651
59.800000000003564        0.07730224942012821
59.82000000000358         0.07796957007996234
59.840000000003585        0.07941716252150215
59.8600000000036          0.08172366121778375
59.880000000003584        0.08501565436484242
59.9000000000036          0.08947526211170413
59.92000000000362         0.09535409096217774
59.940000000003614        0.10298445862506975
59.96000000000364         0.11277218468465805
59.98000000000365         0.12510521631219357
60.00000000000362         0.13997934624724456
60.0200000000036          0.1561019405993448
60.04000000000358         0.17058199865786708
60.06000000000355         0.18117087307836172
60.080000000003544        0.18689132942147374
60.100000000003526        0.18852891468382643
60.12000000000353         0.186733193396359
60.140000000003546        0.18084577635968274
60.16000000000358         0.17007989144823493
60.1800000000036          0.15541229444511906
60.20000000000365         0.13908993427567484
60.22000000000368         0.12400001935722803
60.2400000000037          0.11143555619482477
60.260000000003714        0.10140391254973385
60.280000000003724        0.09352037062343795
60.30000000000373         0.08738136330736776
60.32000000000375         0.0826557801979044
60.34000000000376         0.07909236418111501
60.36000000000376         0.07650836379427324
60.38000000000376         0.07477696466726191
60.40000000000378         0.07381760036269808
60.42000000000378         0.07358924170496987
60.440000000003806        0.07408777191971913
60.460000000003795        0.07534525508052499
60.48000000000381         0.0774328620986824
60.50000000000382         0.0804667653100164
60.520000000003805        0.08461735681321282
60.54000000000382         0.09012126270243735
60.56000000000382         0.09729235994467336
60.58000000000384         0.10651516075526068
60.60000000000383         0.11815766593863612
60.620000000003834        0.13221120444463558
60.6400000000038          0.14742689519965416
60.660000000003784        0.1610403434842019
60.680000000003744        0.17097872987702367
60.70000000000374         0.1762834446870576
60.72000000000373         0.1777984728442694
60.74000000000374         0.17613556759198962
60.76000000000376         0.1706557432579223
60.78000000000378         0.1605628957264766
60.80000000000382         0.14675867953949234
60.820000000003866        0.13133055304822447
60.8400000000039          0.11704153565179128
60.860000000003915        0.10514300076137172
60.880000000003925        0.09564680674786886
60.900000000003956        0.08818702334031768
60.920000000003974        0.08237980068229349
60.94000000000397         0.07791124375454113
60.96000000000397         0.07454157836602333
60.980000000003976        0.07209830978123419
61.000000000003986        0.07046124795074629
61.02000000000399         0.06955393126461559
61.04000000000399         0.06933757205287265
61.06000000000403         0.06980801975649711
61.08000000000401         0.07099554161712743
61.10000000000402         0.07296736959676815
61.12000000000403         0.07583323290851877
61.140000000004044        0.07975413337935942
61.16000000000406         0.08495383026999165
61.18000000000405         0.09172943795279966
61.20000000000407         0.1004452612892523
61.220000000004056        0.11143265971378706
61.24000000000403         0.12470880890394995
61.260000000004           0.13910041854454352
61.28000000000399         0.15195818582895423
61.300000000003955        0.16126246092322186
61.320000000003944        0.166227729659582
61.340000000003926        0.1676423070678421
61.360000000003936        0.1660929444107392
61.380000000003946        0.16096708453039218
61.40000000000398         0.15148546178749736
61.42000000000402         0.1384874776100328
61.44000000000406         0.12392458068134757
61.460000000004094        0.1104238675518592
61.48000000000412         0.09918225994201114
61.50000000000414         0.09021165889430363
61.52000000000417         0.0831703123895216
61.540000000004156        0.07768960425850853
61.56000000000417         0.07347275923241618
61.58000000000418         0.07029459869289569
61.60000000000419         0.06799137849889582
61.62000000000419         0.06644948507074296
61.64000000000419         0.0655966537545006
61.6600000000042          0.06539621769579801
61.68000000000423         0.06584421344109738
61.700000000004216        0.06696916581415786
61.72000000000422         0.068834542349989
61.74000000000423         0.07154401483622283
61.76000000000425         0.07525024411874816
61.78000000000425         0.08016290573750641
61.800000000004246        0.0865620344037659
61.820000000004256        0.09478956854935404
61.84000000000427         0.10517297357645561
61.86000000000425         0.11771033274847502
61.88000000000421         0.13129931862082164
61.900000000004205        0.14343767651028788
61.92000000000415         0.15222042844304998
61.940000000004154        0.1569069603049061
61.960000000004136        0.15824323966708825
61.98000000000414         0.1567838399649785
62.000000000004164        0.15195008262741086
62.02000000000419         0.14300452590490065
62.04000000000423         0.13073975806170177
62.06000000000425         0.1169705722429935
62.0800000000043          0.10423316386190468
62.100000000004336        0.0936321720223801
62.12000000000435         0.08517204132461602
62.14000000000436         0.07852698019738227
62.160000000004366        0.07335554030968067
62.18000000000437         0.06937755560055485
62.200000000004394        0.06638046574557233
62.22000000000439         0.06420972071930656