% Model:              Untitled.mph
% Version:            COMSOL 5.6.0.280
% Date:               Oct 5 2021, 10:17
% Dimension:          1
% Nodes:              1015
% Expressions:        1
% Description:        线图
% cln2x                   Height
21.52                     0.23175717599374274
21.539999999999992        0.2335500308200741
21.55999999999999         0.2390556020036337
21.58                     0.24859384362819445
21.599999999999994        0.2627301128987514
21.61999999999999         0.2822860386710192
21.639999999999986        0.3083174554003772
21.65999999999999         0.34184301809591805
21.679999999999996        0.3827504513052818
21.700000000000003        0.42719350633490977
21.719999999999995        0.4668529016884999
21.739999999999995        0.4956439684599072
21.759999999999994        0.51100567309842
21.779999999999998        0.5154879824192878
21.799999999999986        0.5110460969217038
21.819999999999983        0.4957759321277947
21.839999999999993        0.466964648202376
21.859999999999996        0.4273327472853196
21.879999999999995        0.3829101410932806
21.89999999999999         0.342019435918805
21.91999999999999         0.30850987777926253
21.939999999999998        0.28249506429770144
21.95999999999999         0.2629566661591336
21.97999999999999         0.24883877498490575
21.999999999999993        0.2393180687480759
22.02                     0.23383256793635088
22.039999999999992        0.23205969652183228
22.059999999999995        0.23389508646097182
22.07999999999999         0.2394447315788678
22.099999999999987        0.24903270108585818
22.119999999999994        0.2632208880649493
22.139999999999986        0.2828393167319711
22.15999999999999         0.3089447495427174
22.179999999999993        0.34255837416137974
22.199999999999992        0.3835676806282543
22.219999999999988        0.4281177162240767
22.239999999999984        0.4678707672011509
22.259999999999984        0.4967292331308891
22.279999999999983        0.5121269782981821
22.299999999999986        0.5166201716137608
22.31999999999999         0.5121688746276828
22.33999999999999         0.49686526559427335
22.359999999999992        0.46810642759334103
22.379999999999992        0.4282777700163512
22.399999999999988        0.3837538626115849
22.419999999999987        0.34277498566000986
22.43999999999999         0.3091936048942123
22.459999999999983        0.28312349423777144
22.479999999999986        0.26354407862155654
22.499999999999986        0.249397138996824
22.51999999999998         0.23985756481570386
22.539999999999992        0.23436217279839608
22.559999999999988        0.23258771930558966
22.579999999999984        0.23442965960793638
22.599999999999984        0.23999428699254455
22.619999999999987        0.24960646684089646
22.639999999999986        0.263830477750716
22.65999999999998         0.2834951669025332
22.67999999999998         0.30966290798804846
22.699999999999985        0.34335623813529853
22.719999999999978        0.3844624412029258
22.739999999999988        0.42911776989434935
22.759999999999977        0.46896524992357574
22.779999999999976        0.49789276928641235
22.799999999999976        0.5133280402752005
22.819999999999975        0.5178329103335902
22.83999999999998         0.5133719790547635
22.859999999999978        0.49803310688007524
22.879999999999978        0.469207572297572
22.899999999999984        0.42928651386265754
22.919999999999977        0.38458536905898116
22.93999999999997         0.3435863595977655
22.959999999999976        0.30992801258955915
22.979999999999976        0.28379860749909364
22.99999999999998         0.2641751958788596
23.019999999999975        0.24999709142627033
23.039999999999974        0.24043726587754527
23.05999999999997         0.23493124553634692
23.079999999999977        0.23315507242308817
23.099999999999973        0.23500401439145968
23.119999999999976        0.2405846886349921
23.139999999999972        0.2502228185870842
23.15999999999997         0.26448413001055643
23.17999999999997         0.28419535020915104
23.19999999999997         0.3104138263311482
23.21999999999997         0.3442131349970559
23.239999999999977        0.38542346101176933
23.259999999999977        0.4301919638944607
23.27999999999997         0.47014094187274974
23.29999999999997         0.4991427335944335
23.319999999999965        0.5146184277653779
23.339999999999964        0.5191359997433047
23.35999999999997         0.5146648978614623
23.379999999999967        0.499288297318762
23.399999999999967        0.4703912040040275
23.419999999999966        0.43037088624251985
23.439999999999973        0.3855588632639024
23.459999999999965        0.3444052463435507
23.479999999999972        0.3107172982564507
23.499999999999964        0.2845240056925849
23.519999999999964        0.2648531300178257
23.53999999999996         0.2506413441295236
23.559999999999967        0.24105955679909835
23.579999999999966        0.23554190261227434
23.599999999999962        0.23376365159849888
23.619999999999965        0.23561986584726097
23.639999999999958        0.24121750595779196
23.659999999999965        0.2508832124245415
23.679999999999968        0.26518426081863755
23.69999999999996         0.28494962075252367
23.719999999999956        0.31123949778836285
23.73999999999996         0.34507706146867684
23.75999999999996         0.38645206683198574
23.779999999999955        0.4313415774715977
23.799999999999965        0.47139893416880624
23.819999999999954        0.5004799262089611
23.839999999999957        0.5159985564504393
23.85999999999996         0.5205293880180988
23.87999999999996         0.5160469533788268
23.899999999999952        0.5006293909280308
23.919999999999956        0.47165525876266035
23.939999999999962        0.4315284902592305
23.959999999999955        0.3865980395381682
23.979999999999958        0.34533617213866685
23.99999999999995         0.31153950461563235
24.01999999999995         0.28529416693124543
24.03999999999995         0.2655767175286747
24.05999999999995         0.2513287889642521
24.079999999999952        0.24172333794596312
24.099999999999948        0.23619301387539773
24.11999999999995         0.23441225885898442
24.139999999999954        0.2362759087602668
24.159999999999958        0.24189128042777003
24.179999999999954        0.2515859780786235
24.19999999999995         0.26592890991131274
24.219999999999953        0.28575140818371675
24.239999999999945        0.3121166888237451
24.25999999999995         0.34605083962075156
24.279999999999944        0.38746894538239207
24.299999999999944        0.43256139964687623
24.31999999999994         0.4727340927309781
24.339999999999954        0.5018997242892931
24.359999999999946        0.5174647034789001
24.379999999999946        0.522010359337797
24.39999999999995         0.5175167642337217
24.419999999999945        0.5020567659732864
24.43999999999994         0.47300159323779134
24.459999999999944        0.4327620571045062
24.479999999999936        0.3877051911224107
24.499999999999943        0.34632739191929
24.519999999999946        0.31243608836468945
24.53999999999994         0.28611765266291406
24.559999999999935        0.26634679956730406
24.579999999999934        0.25205900231709555
24.599999999999937        0.24242806066263053
24.619999999999933        0.23688396308998944
24.639999999999933        0.23510025286260341
24.659999999999936        0.23697151206706032
24.679999999999932        0.24260542674354163
24.699999999999942        0.25233061846355864
24.71999999999994         0.26671772626747525
24.739999999999938        0.2866005929899658
24.759999999999934        0.3130456385058704
24.779999999999934        0.34708205666411474
24.799999999999933        0.38862477003166535
24.819999999999933        0.43385804778188086
24.839999999999936        0.4742639265445187
24.859999999999943        0.5034017858326449
24.879999999999942        0.5190150327741696
24.899999999999938        0.523575705418445
24.91999999999993         0.5190696565782443
24.939999999999934        0.5035640713286818
24.95999999999993         0.4744226672271063
24.979999999999936        0.4340636279503039
24.99999999999993         0.38887332852063006
25.01999999999993         0.3473733481431448
25.03999999999993         0.3133822981771826
25.059999999999935        0.28698676656492667
25.079999999999927        0.2671584151486261
25.09999999999993         0.2528315413493206
25.11999999999993         0.24317161149938873
25.13999999999993         0.23761283979657027
25.15999999999993         0.2358258522738272
25.17999999999993         0.237704960621501
25.19999999999993         0.24335823662024983
25.219999999999935        0.25311536987114713
25.23999999999993         0.2675488179507334
25.259999999999923        0.28749506186651386
25.27999999999993         0.3140238879694946
25.299999999999926        0.348167752306891
25.31999999999993         0.38984140671399903
25.339999999999925        0.43521742954041526
25.35999999999992         0.4757514698683173
25.379999999999928        0.505037512923645
25.39999999999993         0.5206464103898099
25.41999999999993         0.5252226762767845
25.439999999999923        0.5207031025042409
25.459999999999923        0.5051489531896474
25.479999999999915        0.47591631873442275
25.499999999999922        0.43543126468900767
25.51999999999993         0.3901007422561975
25.539999999999925        0.34847254260743704
25.55999999999992         0.31437682220667956
25.579999999999927        0.28790036033252464
25.599999999999923        0.26801161929209216
25.61999999999992         0.2536416017560716
25.639999999999922        0.24395473397173936
25.65999999999992         0.23837972197618462
25.679999999999918        0.23658843992351497
25.699999999999918        0.23847569792452628
25.719999999999914        0.24414920250837335
25.739999999999913        0.2539397606343065
25.75999999999992         0.268421733482454
25.77999999999992         0.2884343632773452
25.799999999999923        0.31505095830777335
25.819999999999915        0.3493073861462258
25.83999999999991         0.3911182310654962
25.859999999999914        0.4366439093713798
25.879999999999914        0.4773125247187844
25.899999999999913        0.5066966778251693
25.91999999999991         0.5223596974469381
25.939999999999916        0.5269519857578856
25.959999999999916        0.5224188849858709
25.979999999999908        0.5068146983725051
25.999999999999908        0.4774870407880729
26.01999999999991         0.43687005354396574
26.0399999999999          0.39139186164058365
26.059999999999903        0.3496283074972
26.079999999999906        0.3154220766570061
26.099999999999913        0.28886020511325866
26.119999999999916        0.26890775024841834
26.139999999999905        0.25449219994419714
26.15999999999991         0.2447752587803056
26.179999999999907        0.23918379652061864
26.19999999999991         0.23738864340111313
26.219999999999906        0.23928428804708468
26.23999999999991         0.2449788556709681
26.25999999999991         0.2548043123129581
26.279999999999905        0.26933700690923623
26.29999999999991         0.28941906776117104
26.319999999999904        0.31612748474006575
26.339999999999893        0.3505016894357582
26.359999999999907        0.3924560904482162
26.379999999999903        0.438138411392568
26.399999999999906        0.4789479598737745
26.419999999999902        0.5084348668818036
26.439999999999905        0.5241537367617692
26.4599999999999          0.5287634297875671
26.479999999999908        0.52421490247107
26.4999999999999          0.5085584345177765
26.5199999999999          0.4791307213923967
26.5399999999999          0.43837525966111196
26.559999999999896        0.3927425890287675
26.579999999999895        0.3508376300446024
26.599999999999895        0.31651595694195367
26.619999999999894        0.28986483876802693
26.639999999999894        0.2698457884375536
26.659999999999904        0.2553826321582904
26.679999999999897        0.2456342274751652
26.69999999999989         0.2400255293040965
26.719999999999892        0.2382262923279109
26.739999999999895        0.24012992462759422
26.759999999999895        0.24584727822447333
26.779999999999898        0.25570924640421167
26.79999999999989         0.2702950340140231
26.81999999999989         0.2904498060590189
26.839999999999897        0.3172544280453864
26.859999999999893        0.35175207986378026
26.879999999999896        0.39385694281109473
26.89999999999989         0.43970320542348845
26.91999999999989         0.4806597227426543
26.93999999999989         0.5102534065219841
26.95999999999989         0.5260298532743952
26.97999999999989         0.530656990946884
26.9999999999999          0.5260924929674673
27.019999999999893        0.5103240048395776
27.03999999999989         0.480847002169813
27.059999999999892        0.4399465133542292
27.079999999999885        0.3941525601966384
27.099999999999884        0.35210014589135774
27.119999999999884        0.3176580861096953
27.13999999999989         0.29091385832495165
27.159999999999886        0.2708252916034824
27.179999999999886        0.2563124063426209
27.19999999999989         0.24653109094092515
27.219999999999878        0.24090429163877355
27.239999999999878        0.23910064608355908
27.259999999999877        0.24101323812703526
27.279999999999884        0.2467518456198493
27.299999999999887        0.256651202686893
27.31999999999988         0.2712940750306159
27.339999999999872        0.291524319992571
27.35999999999989         0.31842879797914025
27.379999999999885        0.35305456030328025
27.399999999999878        0.39531560291700424
27.419999999999877        0.441332353944323
27.439999999999884        0.4824423681461325
27.45999999999988         0.5121480130449625
27.47999999999988         0.5279853610335752
27.49999999999988         0.5326314950103305
27.519999999999882        0.5280512459751256
27.53999999999989         0.5122250675174529
27.55999999999988         0.4825206154735428
27.579999999999874        0.4415882147397039
27.599999999999874        0.3956256317264815
27.619999999999877        0.35341867284674233
27.639999999999876        0.3188504059465113
27.659999999999876        0.2920085970487321
27.67999999999987         0.2718471914034225
27.699999999999875        0.25728219499066596
27.719999999999878        0.24746636665409477
27.739999999999874        0.24182052705384083
27.759999999999874        0.24001212370418334
27.779999999999873        0.24193390237156828
27.799999999999876        0.24769610688072688
27.819999999999872        0.2576347842628568
27.839999999999872        0.27233388153376553
27.85999999999987         0.29264374476642946
27.87999999999987         0.31965218517491667
27.89999999999987         0.3544113682357799
27.91999999999987         0.3968350803880457
27.939999999999873        0.4430293051494743
27.95999999999987         0.4842988529713051
27.97999999999987         0.51412066144754
27.999999999999872        0.5300209235602791
28.019999999999868        0.5346863325665211
28.039999999999868        0.530089072705642
28.059999999999867        0.5142020885849168
28.079999999999874        0.4843835984932767
28.099999999999866        0.44328932087561473
28.119999999999862        0.3972332513040413
28.139999999999862        0.3547892239918043
28.15999999999986         0.320089977924019
28.179999999999865        0.2931468507568111
28.19999999999986         0.2729097775622982
28.219999999999864        0.25829061672738585
28.23999999999986         0.24843889076856954
28.259999999999863        0.24277321830085027
28.279999999999863        0.24095980416021792
28.299999999999855        0.24289103994700123
28.319999999999865        0.24867766584772497
28.33999999999986         0.25865709899404765
28.359999999999864        0.2734156294977677
28.379999999999864        0.2938113586085774
28.399999999999856        0.32092335302130115
28.419999999999856        0.35582105626191773
28.43999999999987         0.39841367939196043
28.459999999999866        0.44479215634500463
28.479999999999862        0.4862272262986364
28.499999999999858        0.5161694721050711
28.519999999999865        0.5321348567344227
28.539999999999864        0.5368201177451936
28.559999999999864        0.5322050685483262
28.579999999999856        0.5162548339264634
28.599999999999856        0.48631784208341733
28.619999999999862        0.44506067310704706
28.639999999999855        0.3988229455091329
28.65999999999985         0.3562671391230861
28.679999999999847        0.3213768608422377
28.699999999999854        0.29432851233711466
28.71999999999985         0.27401283559046496
28.73999999999985         0.25933738542120627
28.75999999999985         0.24944832503758593
28.77999999999985         0.24376198742695399
28.799999999999855        0.24194328292636
28.819999999999848        0.2438842218645537
28.839999999999847        0.24969605462013073
28.859999999999843        0.25971762535922477
28.87999999999985         0.27453765390363305
28.899999999999846        0.29501777572232885
28.91999999999985         0.3222626173313466
28.939999999999845        0.357337807632875
28.959999999999845        0.4000502511648721
28.97999999999986         0.44661960975368603
28.99999999999985         0.4882261635204933
29.019999999999854        0.518293169069462
29.039999999999853        0.5343259918941307
29.059999999999853        0.5390317829986561
29.07999999999985         0.5343982585915088
29.09999999999984         0.5183824375217608
29.11999999999985         0.48832259879836737
29.139999999999855        0.4468965845238011
29.159999999999854        0.4004705680327384
29.179999999999847        0.3577420956828377
29.19999999999984         0.32273181690495995
29.219999999999843        0.2955532421300723
29.23999999999984         0.27515607540966075
29.259999999999835        0.26042225036246547
29.279999999999845        0.25049444847842844
29.29999999999984         0.244786632931406
29.319999999999837        0.2429623716483269
29.339999999999844        0.24491327460468254
29.35999999999984         0.2507511074777934
29.379999999999836        0.2608161872789034
29.39999999999984         0.27569975202467073
29.419999999999835        0.2962670920350852
29.43999999999984         0.32362750762467535
29.45999999999983         0.3588511628038321
29.479999999999833        0.4018217828298402
29.49999999999985         0.4485110964848116
29.519999999999847        0.4902950903635194
29.53999999999984         0.5204912054057063
29.55999999999983         0.5365938083003551
29.57999999999984         0.541320729770306
29.599999999999838        0.5366677796622913
29.619999999999834        0.5205836200058749
29.639999999999834        0.49039626960872
29.659999999999833        0.4487953117922487
29.67999999999982         0.4021746204426056
29.699999999999832        0.3592678085774397
29.719999999999825        0.324111845709199
29.739999999999828        0.2968249436712631
29.759999999999827        0.2763380931136961
29.77999999999983         0.26154504776200443
29.79999999999983         0.25157720322191807
29.81999999999983         0.24584717724157185
29.839999999999826        0.24401715242460434
29.859999999999832        0.2459783261750839
29.879999999999832        0.2518429942562208
29.899999999999817        0.2619529859769163
29.91999999999982         0.27690213257896845
29.93999999999982         0.29755949732066733
29.95999999999983         0.3250392064334011
29.97999999999983         0.3604161007799681
29.999999999999822        0.4035735906525344
30.01999999999983         0.45046149898333004
30.03999999999984         0.49231338376027745
30.059999999999828        0.5227642305626601
30.079999999999828        0.5389395215438714
30.099999999999824        0.5436888336142411
30.119999999999827        0.5390164679528571
30.139999999999826        0.5228624885755131
30.159999999999823        0.4925439131139848
30.17999999999981         0.4507623565435636
30.199999999999815        0.4039399452504219
30.21999999999982         0.3608480436931097
30.239999999999817        0.3255408831304727
30.259999999999813        0.2981370531305733
30.279999999999813        0.27756285542990694
30.299999999999812        0.2627051977181223
30.319999999999816        0.2526978442065246
30.339999999999815        0.24694474064050728
30.359999999999815        0.2451086712002453
30.379999999999814        0.2470804009758837
30.39999999999982         0.2529727727065758
30.419999999999817        0.2631291823116939
30.439999999999817        0.2781461498221527
30.45999999999982         0.29889665573739255
30.47999999999982         0.32649984108521063
30.499999999999815        0.3620354046942882
30.51999999999981         0.40538638717745723
30.53999999999981         0.4524849257138995
30.55999999999981         0.49452576939471454
30.579999999999814        0.5250576853265883
30.599999999999813        0.5413644411810932
30.61999999999981         0.5461360021305446
30.63999999999981         0.5414424155401607
30.659999999999815        0.5252148162127974
30.679999999999808        0.4947594946296263
30.699999999999804        0.45279070638039765
30.719999999999803        0.4057603765779501
30.739999999999807        0.3624781830897578
30.759999999999817        0.3270156138614636
30.77999999999981         0.2994915546522827
30.799999999999805        0.27882749056942213
30.819999999999812        0.2639054083623415
30.839999999999808        0.25385368094897337
30.8599999999998          0.24807836153859159
30.879999999999804        0.2462360387966477
30.899999999999803        0.24821861410774293
30.919999999999806        0.254139495411066
30.939999999999813        0.26434369177527123
30.95999999999981         0.2794304899548603
30.979999999999805        0.30027689823319587
30.999999999999805        0.32800721008792433
31.019999999999804        0.3637061172675899
31.039999999999807        0.4072563228418697
31.059999999999803        0.45457196945322303
31.079999999999806        0.4968080717539484
31.099999999999813        0.5274829454296986
31.11999999999981         0.5438665930503848
31.139999999999798        0.5486627385157418
31.1599999999998          0.54394830016794
31.1799999999998          0.5276460567690043
31.199999999999797        0.497050616478548
31.2199999999998          0.4548890965161846
31.23999999999979         0.40764356818896075
31.25999999999981         0.3641639398777168
31.279999999999795        0.3285400950963189
31.29999999999981         0.3008913260896196
31.319999999999787        0.2801340806460327
31.33999999999979         0.26514517790514186
31.35999999999979         0.2550490044864403
31.379999999999797        0.24924810726500127
31.399999999999803        0.24739992340280212
31.419999999999796        0.24939350218999234
31.439999999999795        0.2553436132134577
31.459999999999795        0.2655969254912989
31.4799999999998          0.28075557261925554
31.499999999999787        0.30170071165475726
31.51999999999979         0.3295619460401611
31.53999999999979         0.36542911445756165
31.559999999999796        0.4091845730438208
31.579999999999796        0.4567239158898954
31.59999999999979         0.4991611958540802
31.619999999999788        0.5299833287655243
31.639999999999787        0.5464468994707017
31.659999999999794        0.551267188900435
31.67999999999978         0.546531475144068
31.699999999999783        0.5301505266522879
31.719999999999782        0.4994098981135875
31.739999999999796        0.45704930158468976
31.75999999999978         0.40958230629265574
31.77999999999978         0.3658998213072418
31.79999999999978         0.33011029376561635
31.81999999999978         0.3023333756899089
31.83999999999978         0.2814803636226768
31.85999999999978         0.26642276429375017
31.879999999999768        0.25628086922367915
31.899999999999768        0.25045445771783387
31.919999999999774        0.24859939460453961
31.939999999999767        0.2506050477065746
31.959999999999773        0.2565843902150959
31.97999999999978         0.2668881880488745
31.99999999999978         0.28212070613871776
32.019999999999776        0.30316736817054984
32.039999999999786        0.33116323699312794
32.059999999999775        0.3672034436665033
32.07999999999978         0.4111700063161672
32.09999999999978         0.4589395271823821
32.11999999999978         0.5015840123109333
32.13999999999979         0.5325579431457951
32.15999999999978         0.5491040479990215
32.17999999999979         0.5539494413199677
32.199999999999775        0.5491911106929146
32.21999999999978         0.5327884532748831
32.23999999999978         0.501840180355072
32.25999999999977         0.45927467351518175
32.279999999999774        0.4115795415031556
32.29999999999977         0.36768801655737693
32.31999999999977         0.33172775154159095
32.33999999999977         0.30381878553960956
32.35999999999977         0.282867111648553
32.37999999999977         0.2677387503782198
32.399999999999764        0.25754973768130457
32.41999999999976         0.2516969951518399
32.43999999999976         0.24983477234215054
32.459999999999766        0.2518519483325611
32.47999999999977         0.25786368790661346
32.499999999999766        0.2682198205878527
32.51999999999977         0.28352615925090785
32.539999999999765        0.30467715586518035
32.55999999999977         0.3328114066067934
32.57999999999978         0.36902948469420954
32.599999999999774        0.4132130732201385
32.619999999999784        0.461219295332631
32.63999999999977         0.5040769732348527
32.659999999999776        0.5352071649623547
32.67999999999978         0.5518382846741501
32.699999999999775        0.5567095156892118
32.71999999999978         0.5519277985976055
32.73999999999977         0.5354429261618969
32.75999999999978         0.5044645100311153
32.779999999999745        0.4615642884932218
32.79999999999976         0.4136347160133664
32.81999999999976         0.36952852307375766
32.83999999999976         0.3333930080146259
32.859999999999765        0.30534857936296966
32.87999999999976         0.28429578428820806
32.899999999999764        0.2690950178130259
32.91999999999975         0.2588579233379823
32.93999999999975         0.25297846887517533
32.95999999999975         0.2511092544539225
32.979999999999784        0.25313867228019354
32.999999999999766        0.25918252566818506
33.019999999999754        0.2695924590394099
33.03999999999976         0.2849785148876924
33.059999999999754        0.30623632128437617
33.07999999999976         0.3345136418067971
33.09999999999976         0.37091554311235947
33.11999999999976         0.4153233611293077
33.13999999999976         0.46357410909484376
33.15999999999977         0.5066520384308784
33.17999999999975         0.5379436952909445
33.199999999999754        0.5546626649365565
33.21999999999976         0.5595605206179398
33.23999999999976         0.5547544243061158
33.25999999999975         0.5381843082506647
33.27999999999975         0.5070471697725054
33.29999999999974         0.4639337656266081
33.31999999999975         0.4156773067281322
33.33999999999976         0.3714303224145314
33.35999999999975         0.33511450988881336
33.37999999999975         0.3069308361020648
33.39999999999975         0.2857742334513505
33.41999999999975         0.2704993161816441
33.43999999999974         0.26021320972403295
33.459999999999745        0.25430681463255783
33.47999999999974         0.25243103369635655
33.49999999999974         0.25447378114194164
33.51999999999974         0.2605515474613369
33.53999999999975         0.27101788279302136
33.55999999999975         0.2864860790285885
33.579999999999735        0.30785194393062837
33.599999999999746        0.3362829720000537
33.61999999999974         0.37287641108287356
33.639999999999745        0.41751777259346967
33.65999999999975         0.4660230086463032
33.679999999999744        0.5093298606096628
33.69999999999977         0.5407891806863903
33.71999999999974         0.5575991839350097
33.739999999999746        0.5625245094382778
33.75999999999974         0.5576929625449254
33.77999999999975         0.5410341972951747
33.79999999999974         0.5097321114568021
33.819999999999744        0.46639200050219753
33.83999999999974         0.41788416914507487
33.85999999999974         0.3733505183483149
33.87999999999975         0.33690511553056873
33.899999999999736        0.30857693971241595
33.91999999999974         0.28731266143116857
33.939999999999735        0.2719608929590402
33.95999999999974         0.2616240821398678
33.979999999999734        0.25568993047458455
33.99999999999973         0.2538075509266485
34.01999999999973         0.25586436227073606
34.03999999999972         0.26197757735875404
34.05999999999975         0.2725027314144216
34.079999999999735        0.2880564944648643
34.09999999999973         0.30953957195189774
34.11999999999974         0.33810369326968376
34.13999999999974         0.37486071492336914
34.15999999999974         0.4198027584362347
34.17999999999974         0.46857293519276255
34.19999999999974         0.512118630708062
34.21999999999974         0.5437531975869802
34.23999999999975         0.5606587080952445
34.25999999999974         0.5656130663345534
34.27999999999974         0.560755121130202
34.299999999999734        0.544003932873647
34.31999999999973         0.512529902825999
34.339999999999726        0.46895354884328455
34.35999999999972         0.4201839188457784
34.379999999999725        0.3754114509505356
34.39999999999972         0.3387493324230933
34.41999999999973         0.3102928854462046
34.43999999999972         0.2889165116084712
34.459999999999724        0.2734847351829731
34.47999999999973         0.2630951488296512
34.499999999999716        0.257132141045648
34.51999999999972         0.25524293311672314
34.53999999999972         0.25731440601114025
34.55999999999972         0.26346452548830107
34.57999999999973         0.2740508949036934
34.59999999999974         0.28969369672135337
34.61999999999972         0.3112987243441988