% Model:              Untitled.mph
% Version:            COMSOL 5.6.0.280
% Date:               Oct 6 2021, 16:48
% Dimension:          1
% Nodes:              994
% Expressions:        1
% Description:        线图
% cln1x                   Height
49.25                     0.2989012175411469
49.260000000000076        0.2976856734500633
49.28000000000008         0.29773324077346186
49.300000000000104        0.3011731496075103
49.32000000000011         0.3082576745499923
49.340000000000096        0.3194268625166332
49.36000000000012         0.33534479590094257
49.38000000000012         0.3569472961153868
49.40000000000012         0.38548354936884366
49.42000000000013         0.42247867714711157
49.440000000000154        0.4693778910560773
49.46000000000015         0.5262532306142418
49.480000000000146        0.5878566201848705
49.50000000000016         0.6430795587269299
49.52000000000017         0.6833587101264696
49.540000000000184        0.7050451688445896
49.56000000000018         0.7112999926799862
49.58000000000018         0.704656419444488
49.600000000000186        0.6825284574718334
49.62000000000019         0.6415890064108322
49.64000000000019         0.5851883487525529
49.66000000000021         0.5221337825824341
49.680000000000234        0.46373468406221147
49.70000000000021         0.4149954611589753
49.720000000000226        0.37599133586404765
49.74000000000024         0.3452896598675714
49.76000000000023         0.32136737421551376
49.780000000000236        0.30296979990457706
49.800000000000246        0.289138421049899
49.82000000000026         0.2791768343466665
49.840000000000266        0.2726032700988051
49.86000000000027         0.269113530961637
49.88000000000028         0.2685567815668176
49.90000000000028         0.27092361393539643
49.920000000000314        0.2763457521522491
49.9400000000003          0.2851074781315476
49.96000000000031         0.2976678593623847
49.9800000000003          0.3146922481830934
50.00000000000031         0.33710000005465035
50.02000000000032         0.36612078047714863
50.040000000000326        0.40324223550966143
50.06000000000035         0.44986784620782694
50.08000000000034         0.5058881302809042
50.10000000000035         0.5662981113224139
50.12000000000035         0.6201781152567166
50.140000000000356        0.6593468220598767
50.16000000000036         0.6803687774855867
50.18000000000037         0.6864653636775125
50.20000000000038         0.6801783544828229
50.220000000000375        0.6590021989874703
50.240000000000364        0.6196214873238335
50.260000000000396        0.5652231581595282
50.28000000000039         0.5043533887075631
50.30000000000041         0.44779698170866955
50.3200000000004          0.400578625785776
50.34000000000042         0.36282478302436777
50.36000000000043         0.33314271100504333
50.380000000000436        0.31004831745671907
50.40000000000044         0.2923197533656179
50.42000000000046         0.27902977983271915
50.44000000000047         0.26950541865000643
50.46000000000046         0.26328195173095553
50.48000000000047         0.260067026196562
50.500000000000476        0.25971722324010627
50.520000000000486        0.26222650135864967
50.54000000000049         0.2677258351132638
50.5600000000005          0.2764922581631582
50.58000000000052         0.2889776989271043
50.60000000000052         0.3058357403085606
50.620000000000516        0.32797163657395184
50.640000000000526        0.3565809815429108
50.66000000000053         0.3931184149528043
50.68000000000056         0.4389510405825948
50.70000000000054         0.49395493717445677
50.720000000000546        0.5531897779359493
50.74000000000055         0.6059303833718738
50.760000000000545        0.6442178465009071
50.78000000000055         0.6647257046244048
50.800000000000544        0.6706712255396804
50.820000000000555        0.6645685815613482
50.84000000000056         0.6438841595561757
50.86000000000058         0.6053838621709341
50.88000000000057         0.5523860768410056
50.90000000000059         0.49284047830792305
50.92000000000061         0.437479059524795
50.9400000000006          0.39125483971656044
50.96000000000063         0.3543010615560957
50.98000000000063         0.32525607103934
51.000000000000625        0.3026677421027501
51.02000000000064         0.2853407297017346
51.04000000000065         0.272368174423286
51.06000000000067         0.26309215660541146
51.080000000000666        0.25705867592666237
51.10000000000067         0.25398275795294734
51.12000000000068         0.2537243683518475
51.14000000000068         0.2562794940996324
51.16000000000069         0.26177790678971313
51.180000000000696        0.2704944596996075
51.20000000000071         0.2828713412130915
51.2200000000007          0.29955248509457644
51.24000000000072         0.32142784502493416
51.260000000000716        0.3496723773641917
51.280000000000726        0.385714997205667
51.30000000000074         0.430896640696596
51.32000000000074         0.4850853902977154
51.34000000000075         0.5433968960763276
51.36000000000074         0.5952601705006356
51.38000000000074         0.632950088444548
51.40000000000074         0.6530027675513814
51.42000000000074         0.6588326149241444
51.44000000000075         0.6528592849001941
51.46000000000077         0.632581678841023
51.48000000000077         0.59478749664197
51.500000000000774        0.5427234036552825
51.52000000000079         0.48418005026265776
51.54000000000081         0.42973018764248105
51.5600000000008          0.3842642004986427
51.58000000000082         0.34791901526455565
51.600000000000826        0.3193567935418239
51.62000000000083         0.29715000082056314
51.64000000000084         0.2801235949935027
51.660000000000835        0.26738802416463003
51.68000000000086         0.25829262070911524
51.70000000000086         0.2523940210837769
51.72000000000088         0.24941237628352214
51.74000000000087         0.24921142490638284
51.760000000000886        0.2517874988632621
51.780000000000896        0.25726930840982715
51.8000000000009          0.2659285000482924
51.82000000000092         0.2782016059048981
51.840000000000906        0.29472395960048947
51.86000000000092         0.3163733391142443
51.88000000000091         0.3443083505673468
51.90000000000093         0.37993761591135067
51.920000000000925        0.42450939957834083
51.940000000000936        0.47800477059100777
51.96000000000094         0.5356726117398798
51.980000000000935        0.5869786657431985
52.00000000000094         0.6239901204337295
52.020000000000934        0.6437425720557145
52.04000000000095         0.6494816154696851
52.06000000000094         0.6436029213965263
52.08000000000094         0.6236337558680712
52.100000000000975        0.5863874532202633
52.12000000000097         0.5350569931987089
52.14000000000098         0.4773130668606347
52.160000000001           0.4235951309726755
52.180000000001016        0.3787380066559044
52.20000000000103         0.34287353096520023
52.22000000000103         0.314704764688843
52.24000000000105         0.2928033589509578
52.26000000000104         0.27601473512973107
52.28000000000106         0.263461617789006
52.30000000000106         0.25450716325549483
52.320000000001066        0.24871200828831308
52.34000000000109         0.24580054600080445
52.36000000000108         0.24563888558253102
52.380000000001104        0.24822404087742628
52.4000000000011          0.2536837560020237
52.420000000001096        0.2622869655395545
52.440000000001135        0.2744654939258587
52.460000000001116        0.2908475475538583
52.48000000000113         0.3123017101769275
52.50000000000114         0.3399635900090351
52.52000000000114         0.37521942145300763
52.54000000000114         0.4193665005295298
52.560000000001146        0.4723025365162569
52.58000000000115         0.5293482579383293
52.60000000000112         0.5800780354528495
52.62000000000113         0.6166603362109216
52.640000000001116        0.6361743713654595
52.66000000000112         0.6418449917647779
52.680000000001115        0.6360477227385947
52.70000000000113         0.6163342723280907
52.72000000000115         0.57953890653902
52.74000000000117         0.5288157790879975
52.760000000001185        0.47162364057200107
52.780000000001195        0.41853061840431466
52.800000000001205        0.37421459825141407
52.820000000001215        0.3387784567171822
52.840000000001226        0.31092579500300754
52.86000000000124         0.2892734446132589
52.880000000001225        0.27268008885551365
52.90000000000124         0.26027858288638295
52.92000000000125         0.25143952159207317
52.94000000000125         0.24572878735444423
52.96000000000128         0.24287422085090093
52.98000000000127         0.24274384968561247
53.00000000000128         0.2453352229432588
53.020000000001296        0.2507763515376398
53.0400000000013          0.25933237376324664
53.0600000000013          0.27143171298822055
53.08000000000131         0.2876962314783203
53.10000000000133         0.30898379589872915
53.120000000001326        0.33642434102611546
53.14000000000133         0.3713877185370511
53.160000000001325        0.4151576336032411
53.180000000001336        0.46762969448429853
53.200000000001324        0.5241618041690177
53.22000000000133         0.5744199059089712
53.240000000001324        0.6106534371540496
53.26000000000131         0.6299759172581699
53.28000000000132         0.6355922335263224
53.30000000000133         0.6298612320599284
53.320000000001336        0.6104219727486654
53.34000000000135         0.5740696499983381
53.360000000001364        0.5236932242302236
53.38000000000139         0.4670399697823383
53.400000000001405        0.4144402841180747
53.4200000000014          0.3705346989165107
53.44000000000142         0.3354272887786577
53.46000000000144         0.30783447685329585
53.480000000001446        0.2863864158203979
53.50000000000144         0.26995276653419353
53.52000000000145         0.25767475243449584
53.540000000001456        0.24892908198108896
53.560000000001466        0.24328535597479184
53.58000000000148         0.24047580143582717
53.60000000000148         0.2403689930369947
53.62000000000148         0.2429629655164001
53.64000000000149         0.24838400150037795
53.660000000001496        0.2568969112959308
53.68000000000151         0.26892627672593467
53.70000000000152         0.285089080370911
53.720000000001534        0.3062363186234469
53.74000000000153         0.33348871827204185
53.76000000000153         0.3682047830113593
53.780000000001536        0.4116570640679078
53.80000000000154         0.4637394498005857
53.82000000000152         0.5198401869727567
53.84000000000152         0.5695555171426472
53.860000000001506        0.6055706274900587
53.88000000000151         0.6247977874687581
53.90000000000152         0.6303664087355979
53.920000000001515        0.6246855903394953
53.940000000001525        0.6054122270390628
53.96000000000154         0.5693613351141864
53.98000000000157         0.51939504494101
54.0000000000016          0.46319463613732703
54.020000000001595        0.4110113395819839
54.040000000001605        0.36745205363170785
54.060000000001615        0.3326214796545249
54.080000000001625        0.3052469559936484
54.10000000000164         0.28396998550238584
54.12000000000164         0.2676672073460353
54.140000000001656        0.2554923076756807
54.16000000000165         0.24682413967359842
54.18000000000166         0.24123639996096716
54.200000000001666        0.23846211911521994
54.22000000000167         0.23837223266163907
54.240000000001686        0.24096508989305554
54.26000000000169         0.24636632796965663
54.28000000000169         0.25483908814359846
54.300000000001695        0.26680511374141186
54.320000000001706        0.28287714852459594
54.34000000000174         0.30390024512737074
54.360000000001726        0.33098718206164063
54.38000000000173         0.3655149344233314
54.40000000000174         0.40873189072165567
54.420000000001735        0.4605007746468553
54.44000000000173         0.5161271411738618
54.46000000000172         0.5655081538570438
54.480000000001716        0.6012727253327833
54.50000000000171         0.620363147562297
54.52000000000174         0.625893644401901
54.54000000000171         0.62025976533337
54.56000000000173         0.601133214139703
54.58000000000176         0.5653443141665927
54.600000000001764        0.5157314684664043
54.6200000000018          0.45991717067261584
54.640000000001805        0.4080871958494384
54.660000000001816        0.3648498124651619
54.680000000001826        0.33023259864561977
54.700000000001836        0.30303571123984363
54.72000000000187         0.28190207434745396
54.74000000000185         0.26571457841790386
54.76000000000187         0.2536260349374534
54.78000000000186         0.24502225118351728
54.80000000000187         0.23947999353759578
54.820000000001876        0.2367342561334371
54.84000000000188         0.23665699927189615
54.8600000000019          0.23924678887378156
54.880000000001885        0.24462867228424934
54.9000000000019          0.253064320694229
54.92000000000191         0.2649729960623798
54.940000000001916        0.28096119245764134
54.960000000001905        0.3018756161784458
54.98000000000192         0.3288237587613425
55.00000000000195         0.363153917997124
55.020000000001936        0.4061272216937324
55.04000000000193         0.4575988652790911
55.06000000000194         0.5128986404662637
55.080000000001924        0.5619811689923918
55.100000000001906        0.5975248586413251
55.12000000000191         0.616493607279511
55.14000000000191         0.6219884832211582
55.16000000000192         0.6163923717245043
55.18000000000193         0.5973896590983582
55.20000000000194         0.5616825057892441
55.220000000001974        0.5125139528742307
55.24000000000201         0.45713835853817475
55.260000000002           0.4055937517764755
55.280000000002026        0.36254453179286694
55.30000000000204         0.32813325620812567
55.32000000000203         0.3010981371493239
55.340000000002064        0.2800906138257001
55.36000000000205         0.2640005524281186
55.38000000000207         0.25198605508784355
55.40000000000208         0.24343678227905777
55.420000000002084        0.23793219236761318
55.440000000002094        0.23520901744481082
55.4600000000021          0.2351401070860657
55.48000000000212         0.23772356036455786
55.50000000000212         0.2430844931260767
55.52000000000212         0.25148299563483495
55.54000000000213         0.26333614771402075
55.560000000002134        0.27925009178303545
55.580000000002165        0.3000614901151759
55.600000000002154        0.3268739001139676
55.620000000002165        0.36102791523510946
55.640000000002146        0.4037771780593771
55.66000000000215         0.4549764158754928
55.68000000000214         0.5099782794097855
55.70000000000213         0.5587903565471756
55.7200000000021          0.594134912646717
55.7400000000021          0.6129949657572764
55.76000000000211         0.6184585877773809
55.78000000000212         0.612896383269687
55.80000000000213         0.593939332891761
55.82000000000214         0.5585037763134572
55.84000000000217         0.5096113760477481
55.8600000000022          0.45454072494346176
55.88000000000221         0.4032766324863103
55.90000000000223         0.3604602796512259
55.92000000000224         0.32623447847811704
55.94000000000226         0.29934482563621984
55.96000000000227         0.2784504422642798
55.98000000000226         0.26244748519409794
56.00000000000228         0.25049882264840434
56.0200000000023          0.24199862988582008
56.040000000002294        0.2365261808673097
56.0600000000023          0.23382138994132107
56.08000000000231         0.2337578525658172
56.100000000002325        0.23633427300599788
56.120000000002314        0.2416744199006059
56.14000000000232         0.25003725086853057
56.160000000002334        0.2618377138125861
56.180000000002345        0.2776788089065507
56.20000000000236         0.29839281362386294
56.220000000002344        0.3250774526757777
56.24000000000236         0.35906616520542295
56.26000000000237         0.40160569220580167
56.280000000002346        0.45255050712562
56.30000000000235         0.5072805565703941
56.32000000000233         0.5559790830966124
56.34000000000233         0.5910645185875859
56.36000000000231         0.6097583335146883
56.38000000000231         0.6151934260675497
56.40000000000232         0.6096649006610071
56.420000000002354        0.5908140811994618
56.44000000000235         0.5555686994561749
56.460000000002374        0.5069325711976385
56.480000000002406        0.4521428487280323
56.50000000000242         0.40113620806695843
56.52000000000245         0.35853333216462574
56.54000000000246         0.3244774299525887
56.56000000000247         0.29772084087638295
56.580000000002485        0.2769322083975432
56.60000000000248         0.26100818634242784
56.620000000002484        0.24911830146784059
56.640000000002495        0.24065929736427089
56.660000000002505        0.23521531645206364
56.68000000000251         0.23252599579475305
56.700000000002525        0.23246563839005865
56.720000000002536        0.23503302810217583
56.74000000000253         0.24035134692869944
56.760000000002535        0.24867824613513861
56.780000000002545        0.26042660705050585
56.80000000000255         0.27619643439983516
56.82000000000256         0.2968158474306419
56.84000000000255         0.32337043614345107
56.86000000000257         0.3571789601844616
56.880000000002575        0.39947617817203046
56.900000000002564        0.45015255678412874
56.920000000002545        0.504711230653659
56.940000000002534        0.5531687098890801
56.960000000002516        0.5880776635782874
56.98000000000251         0.6066754498425113
57.000000000002515        0.6120829521035184
57.020000000002526        0.6065851572838671
57.04000000000255         0.5878339006973005
57.06000000000255         0.5527684815922345
57.080000000002585        0.5043759225496369
57.10000000000261         0.4498546868423637
57.120000000002634        0.3990259853592422
57.140000000002665        0.3566688529070548
57.16000000000267         0.3227968970821668
57.18000000000268         0.2961752398143469
57.20000000000272         0.27548467086537864
57.2200000000027          0.259636467040284
57.2400000000027          0.24780349370339286
57.26000000000271         0.2393855223930897
57.280000000002715        0.23396878971691396
57.300000000002726        0.23129425914395083
57.32000000000274         0.23123690436321087
57.34000000000275         0.23379558537583323
57.36000000000275         0.23909296158040555
57.38000000000276         0.24738546980244988
57.40000000000276         0.2590862922666736
57.42000000000277         0.27478817411068174
57.44000000000279         0.29531546748144816
57.460000000002786        0.3217512758690507
57.48000000000279         0.3554079484700175
57.50000000000279         0.39751326473458015
57.520000000002774        0.44795735965873673
57.54000000000276         0.5022623614480565
57.56000000000274         0.550489740529606
57.58000000000272         0.5852301412706342
57.6000000000027          0.6037360359082651
57.62000000000271         0.6091168177105963
57.64000000000271         0.6036476798774966
57.660000000002725        0.5850569324591153
57.68000000000275         0.5502370297877409
57.70000000000278         0.5019410288299931
57.72000000000283         0.44757736579010327
57.74000000000284         0.39707830112015385
57.76000000000286         0.3549168682075253
57.780000000002886        0.32120064516232116
57.80000000000288         0.2947009192927392
57.82000000000291         0.27410490413840155
57.8400000000029          0.25832914728638773
57.86000000000291         0.2465505091166336
57.88000000000292         0.2381716586786612
57.900000000002926        0.23278083451603157
57.920000000002936        0.2301202649661077
57.94000000000295         0.2300657394067687
57.96000000000296         0.23261619687162155
57.98000000000296         0.23789367962484803
58.00000000000297         0.24615351859391216
58.02000000000297         0.257804602173487
58.040000000002976        0.27344080707424145
58.060000000003           0.2938809943321311
58.080000000003           0.32020321348616104
58.10000000000301         0.35371364139658085
58.120000000002996        0.3956341334972829
58.14000000000299         0.44585463253135693
58.160000000002974        0.49991612594528556
58.18000000000294         0.5479239203016109
58.200000000002916        0.5825042197634204
58.22000000000291         0.6009228101158359
58.24000000000291         0.6062797533432072
58.26000000000292         0.6008390281406821
58.28000000000293         0.5823371080725921
58.300000000002946        0.5476803252221409
58.32000000000298         0.499606696629102
58.340000000003016        0.44548891175062183
58.360000000003055        0.39521577562730065
58.380000000003065        0.3532417399558057
58.40000000000307         0.3196746192702231
58.4200000000031          0.2932915996825417
58.440000000003096        0.2727860439043327
58.46000000000312         0.2570795446161339
58.48000000000312         0.24535114923592172
58.500000000003126        0.2370101741370589
58.520000000003144        0.23164441112848108
58.54000000000313         0.2289973248881538
58.56000000000315         0.22894518462896543
58.58000000000317         0.2314870219261217
58.60000000000317         0.2367445507229493
58.62000000000316         0.2449720207790069
58.64000000000318         0.2565765390170762
58.66000000000319         0.27214931603008713
58.68000000000319         0.29250553302860693
58.7000000000032          0.3187184144443881
58.72000000000321         0.35208826746475963
58.74000000000321         0.39383131822492723
58.76000000000319         0.4439299594633639
58.78000000000318         0.49765882127216354
58.80000000000315         0.5453197014956289
58.820000000003134        0.5798190157255345
58.840000000003116        0.5982193801174371
58.86000000000312         0.6035518824036747
58.88000000000313         0.5981377000319448
58.900000000003125        0.5797222853785248
58.920000000003164        0.545222753948244
58.94000000000318         0.49736327364744876
58.960000000003234        0.4434818499349807
58.980000000003244        0.3934257143727134
59.00000000000329         0.3516316451883153
59.020000000003286        0.3182077086155836
59.0400000000033          0.29193592212425684
59.06000000000332         0.27151551041115973
59.08000000000331         0.255875609224432
59.100000000003334        0.24419911937154432
59.12000000000334         0.23589368506210887
59.14000000000335         0.23055120161089718
59.16000000000335         0.22791628610882816
59.18000000000335         0.22786577499060023
59.20000000000338         0.23039872972945766
59.220000000003374        0.23563636201261004
59.24000000000338         0.24383185240105562
59.260000000003394        0.25539058373202106
59.2800000000034          0.2709012090781848
59.30000000000341         0.2911745037046636
59.3200000000034          0.3172879409655214
59.34000000000343         0.3505414415558807
59.36000000000342         0.39215196194304425
59.38000000000341         0.4419733133759953
59.40000000000338         0.4954748809422869
59.42000000000336         0.5429307919114889
59.440000000003344        0.5772799215926804
59.46000000000334         0.5955988186958319
59.48000000000332         0.6009080261241184
59.50000000000333         0.5955195927212986
59.52000000000334         0.5771877987792084
59.54000000000337         0.5428404809137074
59.5600000000034          0.4951885184778498
59.58000000000344         0.441628617056054
59.60000000000346         0.3917588887310014
59.620000000003486        0.3500993223580204
59.6400000000035          0.3167938039161331
59.66000000000351         0.2906244547431497
59.680000000003524        0.27028844909009053
59.700000000003534        0.25471311125258767
59.72000000000355         0.2430849048442427
59.74000000000354         0.23481405414505696
59.76000000000355         0.22949423303023678
59.78000000000356         0.22687117630197853
59.800000000003564        0.22682226927958368
59.82000000000359         0.22934659914671363
59.84000000000358         0.23456488285568156
59.86000000000359         0.2427276139097878
59.880000000003584        0.2542411283774598
59.9000000000036          0.2696910250883474
59.92000000000361         0.28988686060889546
59.94000000000363         0.31589631056419565
59.96000000000364         0.34901613348091176
59.98000000000362         0.39045791471789065
60.00000000000362         0.4400755540042685
60.02000000000359         0.49335637641766483
60.04000000000357         0.5406143953858595
60.06000000000351         0.5748191949858558
60.08000000000354         0.5930605824233847
60.10000000000353         0.5983481641791625
60.12000000000353         0.5929843385512845
60.140000000003546        0.5746690666386554
60.16000000000356         0.5403955360656945
60.1800000000036          0.4930777696144044
60.20000000000364         0.43974563658203464
60.22000000000367         0.39008033408026443
60.2400000000037          0.348590439948123
60.26000000000371         0.31541990312578605
60.280000000003724        0.28935617601158375
60.30000000000373         0.26910200036186016
60.32000000000374         0.25358925983911196
60.34000000000376         0.24200786892805912
60.360000000003765        0.23377055353428164
60.38000000000377         0.2284727129490285
60.40000000000377         0.22586133603797745
60.42000000000378         0.22581366009396847
60.4400000000038          0.2283292857473311
60.46000000000379         0.23352839820405563
60.4800000000038          0.24166208684502036
60.50000000000381         0.25313250871133247
60.52000000000382         0.26852393789370244
60.540000000003815        0.2886426479390917
60.56000000000383         0.31455191500602225
60.58000000000384         0.3475431353481795
60.60000000000383         0.3888227940633267
60.62000000000383         0.4382447030302436
60.6400000000038          0.49131245430132287
60.66000000000378         0.5383774419389719
60.68000000000374         0.5725057532467305
60.70000000000374         0.5906048493965109
60.72000000000373         0.5958689132693166
60.74000000000373         0.5905286882293301
60.76000000000374         0.5722915797158104
60.78000000000378         0.5381608003578201
60.80000000000381         0.49103729193938217
60.82000000000385         0.43792072688230027
60.84000000000388         0.3884542111568702
60.86000000000391         0.34712940821877764
60.880000000003925        0.31409027207513807
60.900000000003935        0.28812942799505586
60.920000000003945        0.267955022454306
60.940000000003955        0.25250559462536354
60.96000000000397         0.24096930693374857
60.980000000003976        0.2327642096822286
61.00000000000398         0.2274874760908515
61.02000000000399         0.2248869594150569
61.040000000004014        0.2248410424654163
61.06000000000401         0.22734880795674403
61.080000000004006        0.2325299849398351
61.100000000004016        0.2406346813985566
61.12000000000401         0.252063469545505
61.140000000004044        0.26739831795397206
61.16000000000405         0.2874423160521172
61.18000000000404         0.3132544934609495
61.20000000000406         0.34612101568786463
61.22000000000405         0.38717630230792155
61.24000000000403         0.4363842090205023
61.260000000004           0.48934302637258553
61.28000000000398         0.536355055447869
61.30000000000395         0.5702087659559466
61.32000000000393         0.588234533834191
61.34000000000392         0.5934773958792523
61.36000000000393         0.5881598038848296
61.380000000003946        0.5699974898265281
61.40000000000398         0.5360038810226426
61.42000000000402         0.4890675081969939
61.440000000004055        0.43615933063890217
61.46000000000409         0.3868852853723095
61.48000000000412         0.345720358925993
61.50000000000413         0.3128020249708888
61.52000000000415         0.28694801609181003
61.54000000000415         0.26685246239550303
61.56000000000416         0.25145970849603383
61.580000000004176        0.23996768598856502
61.60000000000417         0.2317943483219221
61.62000000000419         0.2265384938583849
61.640000000004186        0.22394901163105377
61.6600000000042          0.22390480044932487
61.68000000000422         0.22640497501121523
61.70000000000422         0.2315688230964858
61.72000000000422         0.23964550463942086
61.74000000000422         0.2510340596421001
61.76000000000424         0.2663166639570335
61.78000000000424         0.28628680647600213
61.80000000000425         0.3119979301576253
61.82000000000427         0.3447234858727261
61.84000000000425         0.3856540743986192
61.86000000000425         0.4346788041987766
61.88000000000421         0.48743844986628354
61.900000000004184        0.5342710882800189
61.92000000000415         0.5679942050732021
61.940000000004154        0.5859494992079968
61.960000000004136        0.591172206995097
61.98000000000414         0.5858768535606547
62.00000000000414         0.56778721143814
62.02000000000418         0.5339263417640999
62.04000000000423         0.4871766462192893
62.06000000000426         0.4343727768768598
62.08000000000429         0.38530813631477673
62.100000000004336        0.34433705201855397
62.12000000000433         0.3115682621342115
62.140000000004356        0.28581030150734776
62.16000000000435         0.2657892588533068
62.18000000000436         0.25045358662274925
62.20000000000439         0.2390043328145552
62.22000000000437         0.23086170979265708
62.24000000000437         0.22562607302850138
62.2600000000044          0.2230472967250338
62.2800000000044          0.22300478320390604
62.300000000004424        0.22549769216833673
62.320000000004406        0.2306459123189775
62.34000000000444         0.23869623165830828