% Model:              Untitled.mph
% Version:            COMSOL 5.6.0.280
% Date:               Oct 6 2021, 16:48
% Dimension:          1
% Nodes:              994
% Expressions:        1
% Description:        线图
% cln1x                   Height
49.24999999999999         0.29902506205422014
49.260000000000076        0.29832967588367026
49.280000000000086        0.29929114329265366
49.300000000000104        0.3034918613624504
49.32000000000011         0.3112021698336898
49.34000000000012         0.32288153675385856
49.36000000000011         0.33921585860301795
49.38000000000013         0.3611661309234723
49.400000000000134        0.3900098887308131
49.420000000000144        0.42730436289374457
49.440000000000154        0.47453520750719436
49.460000000000164        0.5318088667419021
49.48000000000015         0.5938727093639244
49.50000000000016         0.6495541802768412
49.520000000000174        0.6901990739740393
49.540000000000205        0.7121113718834917
49.560000000000194        0.7184532233050623
49.58000000000019         0.7117792170316712
49.60000000000019         0.6895110682323743
49.62000000000021         0.6483473313455935
49.6400000000002          0.5917073229543421
49.66000000000021         0.5285028612180714
49.680000000000234        0.4700929673168024
49.70000000000021         0.4214683585545085
49.72000000000022         0.3826663276048884
49.74000000000024         0.35221553510988957
49.760000000000254        0.32856094735435426
49.78000000000025         0.31042276916867706
49.80000000000025         0.29682365391057686
49.82000000000027         0.2870532402798069
49.840000000000266        0.28061983488148806
49.86000000000028         0.27721275923065103
49.88000000000028         0.276677797774086
49.90000000000029         0.27900516120456165
49.92000000000031         0.2843296145954669
49.940000000000296        0.29294225157417064
49.96000000000031         0.3053099332168354
49.98000000000032         0.3221079121660841
50.00000000000033         0.3442775299499646
50.02000000000034         0.3730766871255538
50.04000000000033         0.4100270332288549
50.060000000000365        0.4565730511102826
50.08000000000035         0.512644833514343
50.10000000000036         0.5732463075019221
50.12000000000035         0.6273954435995979
50.140000000000356        0.6668054417641514
50.160000000000366        0.6879770296523107
50.18000000000036         0.6941180930383308
50.20000000000038         0.6877754069095127
50.22000000000038         0.6664353175243766
50.240000000000386        0.6267942852377282
50.260000000000396        0.5721045161072434
50.280000000000406        0.5110186190697283
50.300000000000416        0.4543831726337498
50.320000000000405        0.4072172173037763
50.34000000000043         0.3696100980937338
50.36000000000043         0.340129554574651
50.38000000000044         0.31725829818842216
50.400000000000446        0.2997486057977682
50.42000000000046         0.28665365786663416
50.44000000000047         0.2772859757139973
50.46000000000046         0.2711704798460493
50.48000000000047         0.2680079562990688
50.500000000000476        0.26765124144583047
50.520000000000486        0.2700934920833419
50.54000000000049         0.2754678381339138
50.56000000000051         0.2840566706873283
50.58000000000051         0.2963207640362934
50.60000000000052         0.31292695435014817
50.62000000000053         0.33479902313329696
50.640000000000526        0.3631577084764932
50.66000000000054         0.399490626117618
50.68000000000056         0.4452049453919266
50.70000000000054         0.5002151415183798
50.72000000000055         0.5595888541743035
50.740000000000556        0.6125421185235496
50.76000000000056         0.6510232633849113
50.78000000000056         0.6716488470136398
50.800000000000566        0.6776282388618926
50.82000000000058         0.6714810994579831
50.84000000000057         0.6506654106990951
50.860000000000575        0.6119543565372239
50.88000000000058         0.558722502938034
50.9000000000006          0.4990136788548053
50.92000000000062         0.4436190381322978
50.94000000000062         0.3974849583967423
50.96000000000063         0.360708220378914
50.980000000000636        0.3318885831334056
51.00000000000064         0.30954172142700837
51.02000000000065         0.2924473120312743
51.04000000000065         0.2796796676332361
51.06000000000068         0.27056698786039324
51.080000000000666        0.2646454110834507
51.10000000000067         0.2616234912756599
51.12000000000067         0.26135776566711055
51.14000000000069         0.263843607123358
51.16000000000069         0.2692130415838978
51.1800000000007          0.2777462192390794
51.20000000000071         0.2898940790808202
51.22000000000071         0.30631341804058393
51.24000000000071         0.3279121222773281
51.26000000000073         0.3558894313936907
51.28000000000072         0.3917061107885221
51.30000000000074         0.43674189991541545
51.32000000000075         0.4909022390006614
51.34000000000075         0.5493108542823657
51.36000000000075         0.6013423736979837
51.380000000000734        0.6391889605177951
51.40000000000074         0.659335609888039
51.42000000000074         0.6651914694716045
51.440000000000765        0.6591820436419656
51.46000000000077         0.6387980502724487
51.48000000000077         0.6008319103870376
51.50000000000078         0.5485813600990317
51.52000000000079         0.4899213272034546
51.540000000000816        0.43547843520145696
51.56000000000083         0.39013539207989567
51.58000000000084         0.3539932056753005
51.60000000000083         0.32567648195863563
51.62000000000085         0.3037265426662315
51.64000000000084         0.2869442774051963
51.66000000000085         0.2744219999378027
51.68000000000085         0.2654958268183815
51.70000000000087         0.2597129196590296
51.72000000000089         0.25678728383770555
51.74000000000088         0.2565794314653251
51.760000000000886        0.2590852174474282
51.7800000000009          0.2644356238446193
51.800000000000885        0.27290748693666084
51.82000000000092         0.28494582069073443
51.840000000000906        0.3011983565160953
51.860000000000916        0.32256008791518453
51.880000000000926        0.3502128655782
51.90000000000094         0.3855957836583483
51.92000000000093         0.429995259598633
51.94000000000094         0.4834275111599717
51.960000000000946        0.5411536726708092
51.98000000000094         0.5925951446582844
52.00000000000094         0.6297414641558923
52.020000000000934        0.6495777699934591
52.04000000000095         0.6553435670604796
52.06000000000094         0.6494405923854646
52.08000000000096         0.6293896335197423
52.10000000000098         0.5920061101848523
52.12000000000098         0.5405298563758094
52.140000000000995        0.48270617221242834
52.160000000001           0.42902566966979166
52.18000000000104         0.38431615456733803
52.20000000000103         0.34867453735151355
52.22000000000105         0.32076656218991345
52.24000000000106         0.29913399689649944
52.26000000000104         0.2825988556367516
52.28000000000106         0.27026631996763384
52.30000000000107         0.2614866863356251
52.32000000000107         0.25581152217080105
52.34000000000109         0.2529593474761789
52.36000000000108         0.2527932401373773
52.380000000001104        0.25530986019973495
52.40000000000111         0.2606392749407286
52.42000000000112         0.26905558127404855
52.44000000000114         0.28099895799335034
52.46000000000112         0.29710975945805324
52.48000000000113         0.31827344716099343
52.50000000000115         0.34564842596121953
52.52000000000115         0.3806506957434881
52.54000000000114         0.42461392206882587
52.560000000001146        0.4774714495848514
52.58000000000116         0.5345551047017433
52.600000000001124        0.5853966132070262
52.62000000000113         0.6220930318107248
52.64000000000112         0.641676053873205
52.66000000000113         0.6473655929132638
52.68000000000113         0.64154166653372
52.700000000001125        0.6217499283652876
52.72000000000114         0.5848303968615643
52.74000000000116         0.5339821695263719
52.760000000001185        0.47674022896977347
52.7800000000012          0.4237131238857912
52.80000000000121         0.3795672119922482
52.82000000000125         0.3443705379628022
52.84000000000124         0.3167911912024473
52.86000000000126         0.29541674446690364
52.880000000001246        0.2790833568994041
52.90000000000125         0.26690700727829686
52.92000000000126         0.25824591801135344
52.94000000000126         0.25265725243824166
52.96000000000128         0.2498632256280049
52.98000000000128         0.24972899852548516
53.00000000000127         0.2522518580143004
53.02000000000129         0.25756212992598015
53.0400000000013          0.2659301094519658
53.06000000000132         0.2777924258174551
53.08000000000131         0.29378285436541335
53.10000000000133         0.3147757477847093
53.120000000001326        0.3419232718798978
53.14000000000133         0.37662440136764985
53.16000000000133         0.4201984608156512
53.180000000001336        0.47257613504607665
53.20000000000134         0.5291267544461022
53.22000000000133         0.5794762671274712
53.24000000000134         0.6158076006913643
53.26000000000132         0.6351893179221841
53.28000000000132         0.6408224563093281
53.300000000001326        0.6350707124779178
53.32000000000134         0.6155670696146603
53.34000000000136         0.5791099996331507
53.360000000001385        0.5286329328834077
53.38000000000139         0.4719500503003879
53.400000000001405        0.41943214326088996
53.420000000001416        0.3757090431644324
53.440000000001426        0.3408505655861187
53.460000000001436        0.313538113603118
53.48000000000145         0.2923730558259973
53.500000000001464        0.27620293790868716
53.52000000000147         0.2641524339490103
53.54000000000147         0.2555861458023457
53.56000000000147         0.25006517628857877
53.58000000000149         0.24731621941302712
53.60000000000149         0.24720508770811012
53.62000000000149         0.24972957453127922
53.6400000000015          0.25501827082638867
53.66000000000151         0.26334099723879795
53.680000000001506        0.2751303775895758
53.700000000001516        0.29101502457685796
53.720000000001534        0.3118620004143715
53.74000000000154         0.3388136863098718
53.76000000000154         0.37325698029745
53.78000000000154         0.4164992813986982
53.80000000000154         0.4684692500592821
53.82000000000152         0.524568008135985
53.840000000001524        0.5743566835336781
53.860000000001506        0.6104546448419399
53.880000000001495        0.629733270949763
53.90000000000151         0.6353176854909092
53.920000000001515        0.6296213916072274
53.94000000000152         0.6102960036119345
53.96000000000155         0.5741587580492002
53.98000000000156         0.524113848091562
54.000000000001606        0.4679041194350981
54.020000000001595        0.4158193157645469
54.040000000001605        0.3724557324678128
54.060000000001615        0.33788424460148564
54.080000000001625        0.3107977016776412
54.10000000000166         0.2898093364340781
54.120000000001646        0.2737741585445053
54.14000000000165         0.2618295506977446
54.16000000000166         0.253342559057634
54.18000000000168         0.24787856015612877
54.20000000000168         0.24516524031439182
54.22000000000169         0.24507082512910575
54.24000000000169         0.24759344056906996
54.260000000001696        0.25286099101748294
54.28000000000169         0.26114152150559883
54.30000000000171         0.27286463223258883
54.3200000000017          0.2886544134508182
54.340000000001744        0.3093715720214476
54.36000000000174         0.33614996664115426
54.380000000001736        0.37039370012778683
54.40000000000174         0.4133859817530144
54.42000000000174         0.465024448935423
54.44000000000174         0.5206297666710704
54.4600000000017          0.5700657282915604
54.48000000000171         0.6059002056344154
54.50000000000172         0.6250353639587328
54.52000000000173         0.6305795346089932
54.54000000000171         0.6249315053369485
54.560000000001736        0.6057587255144843
54.58000000000174         0.5698958365719264
54.600000000001764        0.5202223758512837
54.620000000001816        0.4644202988708567
54.640000000001805        0.41270885597156765
54.66000000000182         0.36968267287678963
54.680000000001826        0.33533684972725897
54.700000000001836        0.30843684325709736
54.72000000000186         0.2875980823607891
54.740000000001864        0.2716824201138506
54.76000000000186         0.25982693851634164
54.780000000001856        0.25140592634384873
54.800000000001866        0.24598804219674514
54.82000000000188         0.24330306647802122
54.84000000000189         0.24322033548325256
54.860000000001904        0.2457382157823277
54.8800000000019          0.2509839754995189
54.9000000000019          0.2592240739088684
54.920000000001934        0.27088543665216225
54.940000000001916        0.28658565123340984
54.960000000001955        0.30718654059959666
54.98000000000194         0.33381614380224367
55.00000000000195         0.36784972198857985
55.020000000001936        0.41058194296553285
55.040000000001946        0.4619028714074446
55.060000000001935        0.5171585804294857
55.080000000001924        0.5662739055835484
55.10000000000192         0.6018704745591544
55.12000000000192         0.6208740514234542
55.140000000001905        0.6263797678186129
55.16000000000192         0.6207732466838098
55.18000000000193         0.6017352637556997
55.20000000000194         0.5659730934232904
55.22000000000198         0.5167663172068349
55.24000000000201         0.46142490973503836
55.260000000002016        0.4100186190637953
55.280000000002026        0.3671975245188359
55.30000000000206         0.33307011287368044
55.320000000002054        0.30634132379657003
55.34000000000207         0.2856356985987382
55.36000000000208         0.2698225627552535
55.380000000002084        0.2580446735613658
55.400000000002066        0.24968045891209284
55.42000000000209         0.2443014710290743
55.4400000000021          0.2416393491337471
55.46000000000211         0.24156436755813554
55.48000000000213         0.2440744516561392
55.500000000002125        0.24929686410152582
55.52000000000214         0.2574963592931653
55.54000000000214         0.2690974610599836
55.56000000000215         0.28471704319214997
55.580000000002165        0.3052065568506131
55.60000000000216         0.3316894807968976
55.62000000000217         0.3655326579756859
55.64000000000217         0.40802255183934794
55.660000000002164        0.45904858244371577
55.68000000000215         0.5139813609177631
55.70000000000214         0.5628029803946131
55.72000000000212         0.598182960147772
55.740000000002105        0.6170680396649451
55.7600000000021          0.6225396248212014
55.780000000002104        0.6169701754789161
55.80000000000213         0.5979883792209417
55.82000000000214         0.5625153983454014
55.84000000000217         0.5136084148493176
55.86000000000221         0.45859714185314365
55.88000000000223         0.4074939015114946
55.90000000000223         0.3649239606811912
55.920000000002254        0.33099621983634936
55.94000000000226         0.3044236765946424
55.960000000002275        0.28383923433925917
55.98000000000227         0.2681190665749842
56.000000000002295        0.2564111211449472
56.02000000000229         0.24809862110659522
56.04000000000231         0.24275322160322882
56.06000000000232         0.24010983641101163
56.080000000002315        0.24003954465988575
56.10000000000234         0.24254084370983736
56.12000000000233         0.24773960632675873
56.14000000000233         0.25589931354973916
56.16000000000235         0.2674421309413875
56.180000000002345        0.2829814576622253
56.200000000002376        0.3033639014834599
56.22000000000237         0.3297065047333414
56.24000000000237         0.36336821845272976
56.26000000000235         0.4056278716963391
56.28000000000235         0.4563744601493061
56.300000000002356        0.5110071798573234
56.32000000000234         0.5596885997822618
56.34000000000232         0.5947906805811908
56.36000000000231         0.6134985698451144
56.38000000000231         0.6189374299375909
56.40000000000232         0.613403294112508
56.420000000002354        0.59453617900968
56.44000000000235         0.5592707616309641
56.460000000002374        0.5106447902878565
56.4800000000024          0.45594340004733847
56.50000000000243         0.40512476588797763
56.520000000002454        0.3627906336724107
56.54000000000246         0.3290502345494014
56.560000000002475        0.30262413275505357
56.5800000000025          0.28215557047954637
56.60000000000249         0.26652195799521355
56.62000000000249         0.2548784213339312
56.64000000000251         0.24661113852489996
56.66000000000251         0.24129681550145046
56.68000000000252         0.23867030074117573
56.700000000002525        0.23860347258336237
56.72000000000254         0.241094921299933
56.74000000000253         0.2462698672373143
56.76000000000256         0.25439035907528657
56.78000000000255         0.2658762884260556
56.800000000002555        0.2813377433965114
56.82000000000258         0.3016167308633487
56.84000000000256         0.32781779506036607
56.86000000000257         0.3612843854290009
56.880000000002575        0.4032825623053536
56.90000000000257         0.4537365875561909
56.92000000000255         0.5081705959322048
56.94000000000255         0.556586298106166
56.96000000000253         0.5914934432899396
56.98000000000252         0.6100948700674788
57.000000000002515        0.6155027884087103
57.02000000000251         0.6100020829402001
57.04000000000255         0.5912442733184733
57.06000000000255         0.5561768602794215
57.080000000002585        0.5078190407332174
57.100000000002616        0.4534134330811928
57.12000000000265         0.40279870914599847
57.14000000000267         0.3607304954515057
57.16000000000268         0.3271898285580107
57.180000000002686        0.3009108931979522
57.20000000000273         0.2805498132182205
57.2200000000027          0.26499912555186694
57.24000000000271         0.25341772060809215
57.26000000000271         0.24519514137047743
57.28000000000271         0.23991042247752348
57.30000000000274         0.23729988863484766
57.32000000000274         0.23723616587549853
57.34000000000276         0.23971792947811474
57.36000000000275         0.24486981052349913
57.38000000000277         0.25295249466797265
57.400000000002784        0.2643858983727365
57.42000000000277         0.27977264817565634
57.44000000000279         0.29995051108519843
57.4600000000028          0.3260207581052566
57.4800000000028          0.3593198126949712
57.5000000000028          0.4011059701740477
57.52000000000279         0.4513031277481108
57.54000000000277         0.5054568151190965
57.560000000002745        0.5536189910043665
57.58000000000272         0.5883408745740651
57.60000000000271         0.6068418684078296
57.62000000000272         0.6122210435880922
57.6400000000027          0.6067525332217613
57.66000000000275         0.588165156740664
57.680000000002764        0.5533606255528837
57.70000000000278         0.5051245099503703
57.72000000000283         0.4509041879492658
57.74000000000285         0.4006423392854583
57.76000000000287         0.35878954935929835
57.78000000000289         0.3254201500796285
57.80000000000289         0.29927516383832486
57.82000000000292         0.2790178297895346
57.84000000000291         0.2635465253952619
57.86000000000291         0.2520245714875806
57.88000000000292         0.24384472729752363
57.90000000000294         0.23858825188103136
57.92000000000294         0.23599287716092515
57.940000000002954        0.23593211101301118
57.96000000000297         0.23840471741963734
57.98000000000297         0.24353465833090254
58.00000000000297         0.2515813831742254
58.02000000000298         0.2629603588468464
58.04000000000298         0.2782749341059231
58.06000000000301         0.29835701214064575
58.080000000003004        0.3243022523015172
58.10000000000301         0.35744022162551164
58.120000000003           0.39902261910013076
58.14000000000299         0.4489730377174427
58.16000000000298         0.5028576649972831
58.180000000002956        0.5507767907297145
58.20000000000292         0.5853212365203877
58.22000000000292         0.6037253119191189
58.240000000002915        0.609077805770795
58.26000000000293         0.6036405688338865
58.28000000000294         0.5851514745183676
58.30000000000295         0.550527400247505
58.320000000003           0.5025372411585347
58.340000000003016        0.4485887076027361
58.36000000000305         0.3985764108458086
58.380000000003086        0.35693043325327717
58.40000000000309         0.323725411665592
58.42000000000311         0.2977089288649184
58.44000000000313         0.2775510562316212
58.46000000000312         0.2621557774182273
58.48000000000312         0.25068907233315935
58.50000000000313         0.24255055377925885
58.52000000000315         0.23732130893175218
58.540000000003154        0.2347404427834864
58.56000000000316         0.23468201471010128
58.580000000003174        0.23714488031412487
58.60000000000316         0.24225260522819853
58.62000000000318         0.250263422413491
58.640000000003184        0.26159079299258786
58.660000000003194        0.2768350759241258
58.68000000000321         0.2968240543131856
58.7000000000032          0.3226479762017072
58.72000000000321         0.35562981618454786
58.74000000000321         0.39701494519257424
58.760000000003195        0.44681847624411297
58.780000000003184        0.5003458208230728
58.80000000000315         0.547896058926735
58.82000000000311         0.582342141923953
58.84000000000314         0.6007189451919602
58.860000000003126        0.6060447056077891
58.88000000000313         0.6006369718788962
58.90000000000316         0.5822437406414974
58.92000000000317         0.5477940500100539
58.9400000000032          0.5000414674166973
58.96000000000325         0.44635530467217827
58.98000000000325         0.3965838678468282
59.00000000000328         0.35513751636804386
59.0200000000033          0.32209117644782126
59.04000000000332         0.2961978911094895
59.06000000000334         0.27613442717198633
59.08000000000333         0.2608127100268098
59.10000000000334         0.24940299373788197
59.120000000003344        0.24130365468446954
59.140000000003354        0.2361000490030949
59.16000000000335         0.23353257335857874
59.18000000000336         0.23347592499974273
59.20000000000338         0.23592899689332067
59.22000000000338         0.24101479763106246
59.240000000003384        0.24899036986838094
59.26000000000339         0.260267250945465
59.2800000000034          0.2754429456448995
59.30000000000338         0.2953403927351575
59.320000000003425        0.32105343813654463
59.34000000000343         0.3539040125029918
59.36000000000342         0.39513769968777945
59.380000000003406        0.4446425082022254
59.40000000000338         0.49791768050244667
59.42000000000337         0.5452398304472901
59.44000000000334         0.579518394751172
59.46000000000334         0.597803889280388
59.48000000000333         0.6031032062611336
59.500000000003325        0.5977237781784833
59.52000000000335         0.5794233134239596
59.540000000003374        0.5451426970036448
59.560000000003406        0.49762066604328725
59.580000000003444        0.44428050794470547
59.600000000003476        0.39471864461116496
59.6200000000035          0.35342644368647325
59.64000000000353         0.32051405168120084
59.66000000000352         0.29473518641022317
59.680000000003524        0.274765142577813
59.70000000000354         0.259514807876668
59.72000000000355         0.2481584161375053
59.74000000000355         0.2400972285218031
59.76000000000356         0.2349185921206222
59.78000000000356         0.23236415716367706
59.800000000003564        0.23230923952949176
59.82000000000358         0.234752766924441
59.840000000003585        0.2398172025457088
59.8600000000036          0.24775683723959266
59.880000000003584        0.2589838873062679
59.9000000000036          0.2740925486438245
59.92000000000362         0.2939041674459381
59.940000000003614        0.3195023792085254
59.96000000000364         0.35220534158213684
59.98000000000365         0.3932527105699029
60.00000000000362         0.44253239772512487
60.0200000000036          0.4955626351382808
60.04000000000358         0.5426633530107601
60.06000000000355         0.5767792830490455
60.080000000003544        0.5949760061221573
60.100000000003526        0.600249169084237
60.12000000000353         0.594896087450878
60.140000000003546        0.5766191105174681
60.16000000000358         0.542428506062189
60.1800000000036          0.4952616927482339
60.20000000000365         0.44217480345065396
60.22000000000368         0.39284185589356274
60.2400000000037          0.35173962258539976
60.260000000003714        0.3189781990769197
60.280000000003724        0.2933173277246779
60.30000000000373         0.27343860045454993
60.32000000000375         0.25825805707625665
60.34000000000376         0.24695382791367532
60.36000000000376         0.23892999611535562
60.38000000000376         0.2337758556164568
60.40000000000378         0.23123444565581242
60.42000000000378         0.23118102640768154
60.440000000003806        0.23361502792653674
60.460000000003795        0.23865832339450696
60.48000000000381         0.24656562061325196
60.50000000000382         0.2577448313469594
60.520000000003805        0.27278848686441803
60.54000000000382         0.2925142199458349
60.56000000000382         0.3180006904114903
60.58000000000384         0.35055998262748433
60.60000000000383         0.3914259727021745
60.620000000003834        0.4404865911230539
60.6400000000038          0.4932790312838166
60.660000000003784        0.5401658463471273
60.680000000003744        0.5741902975228786
60.70000000000374         0.592238679525133
60.72000000000373         0.5974875778108854
60.74000000000374         0.5921618617597462
60.76000000000376         0.5739749104597714
60.78000000000378         0.539944910682234
60.80000000000382         0.49299525962839236
60.820000000003866        0.4401474028863536
60.8400000000039          0.39103401974430113
60.860000000003915        0.3501140014033385
60.880000000003925        0.3174976158105178
60.900000000003956        0.29195029026838865
60.920000000003974        0.27215955539779396
60.94000000000397         0.257048502137317
60.96000000000397         0.2457939812527381
60.980000000003976        0.23780559764081463
61.000000000003986        0.23267458774840355
61.02000000000399         0.2301449673060072
61.04000000000399         0.23009317124177905
61.06000000000403         0.23251812346611467
61.08000000000401         0.23754117589446203
61.10000000000402         0.24541592557668954
61.12000000000403         0.2565484955493285
61.140000000004044        0.27152881770470577
61.16000000000406         0.29117093546865036
61.18000000000405         0.3165487243313376
61.20000000000407         0.3489683821375083
61.220000000004056        0.3895922655021852
61.24000000000403         0.43841596770299723
61.260000000004           0.49107334941085673
61.28000000000399         0.537884336531475
61.300000000003955        0.5716201863613566
61.320000000003944        0.5895872025284967
61.340000000003926        0.5948130324359979
61.360000000003936        0.589513465130781
61.380000000003946        0.5714112724728388
61.40000000000398         0.5375355541836055
61.42000000000402         0.490795679967555
61.44000000000406         0.4381804132005391
61.460000000004094        0.389281436926863
61.48000000000412         0.34853948374537136
61.50000000000414         0.3160586437997115
61.52000000000417         0.29062932317978635
61.540000000004156        0.27092617994226104
61.56000000000417         0.25587858022698196
61.58000000000418         0.2446733532164799
61.60000000000419         0.23672032440386434
61.62000000000419         0.23161255154696353
61.64000000000419         0.22909520897654875
61.6600000000042          0.2290453064353891
61.68000000000423         0.23146180584771228
61.700000000004216        0.23646556943805122
61.72000000000422         0.24430913750421723
61.74000000000423         0.2553969236560604
61.76000000000425         0.2703187641150961
61.78000000000425         0.28987891603411053
61.800000000004246        0.31514521164589754
61.820000000004256        0.34741064786664677
61.84000000000427         0.3878919660193112
61.86000000000425         0.43651164240363816
61.88000000000421         0.4889467666626378
61.900000000004205        0.5355567425908904
61.92000000000415         0.5691457474939047
61.940000000004154        0.5870329787683259
61.960000000004136        0.5922356398571638
61.98000000000414         0.5869607423278934
62.000000000004164        0.568939902893807
62.02000000000419         0.535212751179938
62.04000000000423         0.48868063735171585
62.06000000000425         0.43619480812297806
62.0800000000043          0.3875270114902846
62.100000000004336        0.34699642115555185
62.12000000000435         0.3146788489837442
62.14000000000436         0.2893568250117354
62.160000000004366        0.26973691074482375
62.18000000000437         0.2547530624426246
62.200000000004394        0.24359559643823647
62.22000000000439         0.23567686955227563
62.24000000000439         0.23059168836318686
62.260000000004396        0.22808633869167758
62.28000000000441         0.22803839735124992
62.30000000000443         0.23044687357273624
62.32000000000443         0.23543314421460135
62.34000000000444         0.24324732498966675
62.36000000000444         0.2542926287262607