% Model:              Untitled.mph
% Version:            COMSOL 5.6.0.280
% Date:               Oct 6 2021, 16:47
% Dimension:          1
% Nodes:              1015
% Expressions:        1
% Description:        线图
% cln1x                   Height
49.2                      0.33203862612000296
49.21999999999993         0.3316102459955352
49.239999999999924        0.3363461483335774
49.25999999999991         0.3466243566435698
49.27999999999991         0.3631544418110771
49.2999999999999          0.38700543933817505
49.319999999999894        0.41956817184741
49.33999999999989         0.4622103403549929
49.35999999999989         0.5148953864485012
49.379999999999875        0.5728135919609977
49.399999999999885        0.6249985257449966
49.41999999999987         0.6629114808502026
49.439999999999856        0.6831994256964887
49.459999999999845        0.6890272474795796
49.47999999999983         0.6827755633574129
49.49999999999984         0.6619215876252335
49.519999999999825        0.623187199386426
49.53999999999982         0.5698385280230469
49.55999999999982         0.5103796858104805
49.57999999999979         0.45582477556344214
49.5999999999998          0.4110513597199087
49.61999999999979         0.3761410770983814
49.63999999999978         0.3497421133962845
49.65999999999978         0.3304546414239057
49.67999999999978         0.31718009894687005
49.69999999999978         0.3091612469551736
49.71999999999976         0.3059544905897973
49.73999999999975         0.30740274755296004
49.759999999999735        0.3136221996349693
49.77999999999974         0.3250133339455977
49.799999999999734        0.34228682040459874
49.819999999999716        0.36649029792000654
49.83999999999971         0.3989710085383144
49.85999999999971         0.44104031166019475
49.8799999999997          0.49263392886413204
49.89999999999969         0.5490521185319724
49.91999999999969         0.5996738362929357
49.939999999999685        0.6363521997874976
49.959999999999695        0.6559428201226722
49.97999999999967         0.6616069888448888
49.99999999999967         0.6557039441161429
50.01999999999966         0.6358190971639073
50.03999999999965         0.598738452810785
50.05999999999965         0.5475735170291395
50.07999999999963         0.4904544269240924
50.09999999999962         0.4380273165702837
50.11999999999962         0.39502609747908124
50.13999999999961         0.361538251452266
50.159999999999606        0.33626323818197607
50.1799999999996          0.31785436750613766
50.19999999999959         0.3052561333903382
50.21999999999959         0.29774263338233603
50.239999999999576        0.29489080802424167
50.259999999999586        0.2965535849907413
50.27999999999955         0.3028512408806215
50.29999999999957         0.3141742208269825
50.31999999999955         0.331216526665498
50.33999999999955         0.3549974983591157
50.359999999999545        0.3868258073802469
50.379999999999534        0.4279717503044362
50.39999999999952         0.478359480288937
50.41999999999952         0.5333870985743839
50.43999999999951         0.5826933053312641
50.459999999999496        0.6183810786260013
50.479999999999514        0.637419793578413
50.499999999999496        0.6429275888711227
50.51999999999951         0.6372208109457549
50.53999999999949         0.6178810145873329
50.55999999999949         0.5819576831514904
50.579999999999465        0.532260626833506
50.59999999999947         0.4767424075899739
50.61999999999946         0.42577793715926987
50.63999999999944         0.38398914625255837
50.659999999999435        0.3514657016305542
50.67999999999942         0.3269435319851801
50.699999999999406        0.3091135933794136
50.71999999999941         0.2969505372631183
50.73999999999941         0.28975008272038716
50.759999999999394        0.28710298607138396
50.77999999999939         0.2888689778029489
50.799999999999386        0.2951667640096398
50.81999999999938         0.306383196272092
50.83999999999938         0.3232002298463782
50.859999999999374        0.34661037388331967
50.879999999999356        0.3778955771824437
50.89999999999936         0.4182959138985521
50.91999999999935         0.4677293653560887
50.939999999999344        0.5216745111711595
50.959999999999354        0.5699731459265084
50.97999999999935         0.6049110558094765
50.99999999999935         0.6235374675457014
51.01999999999934         0.6289281807813376
51.03999999999933         0.6233623420824075
51.05999999999933         0.6044716468562736
51.07999999999932         0.5692165959721708
51.09999999999929         0.5207518968804424
51.119999999999294        0.4664360477119661
51.139999999999276        0.4165718743601081
51.15999999999928         0.3756927768949534
51.17999999999926         0.34388926536796305
51.19999999999925         0.3199248722441933
51.219999999999224        0.3025190425268782
51.23999999999922         0.2906691305679984
51.25999999999921         0.28368699355485943
51.27999999999921         0.28117352775235943
51.29999999999921         0.28299320641928255
51.3199999999992          0.2892643700874072
51.33999999999919         0.3003682979978694
51.35999999999918         0.3169744391042587
51.37999999999918         0.3400618080580915
51.399999999999174        0.37088553961962295
51.41999999999919         0.4106634011388155
51.43999999999917         0.45930994224052457
51.45999999999917         0.5123715077455525
51.479999999999166        0.5598557316056307
51.49999999999916         0.5941917808464496
51.51999999999916         0.6124898254735024
51.53999999999914         0.6177872490032875
51.55999999999914         0.6123311614171502
51.57999999999914         0.5937935471641808
51.59999999999913         0.559178280183624
51.61999999999912         0.511576514340445
51.639999999999105        0.4583118324542671
51.65999999999908         0.40923697880129284
51.679999999999076        0.3690823953499688
51.69999999999906         0.3378505071231996
51.71999999999908         0.31432684234128044
51.73999999999906         0.29725355792199587
51.75999999999906         0.28564605016946143
51.779999999999056        0.27882892678763516
51.799999999999045        0.27641099733273655
51.819999999999034        0.27826028834569144
51.83999999999902         0.28449455852656
51.85999999999902         0.2954902785306902
51.879999999999015        0.3119074829271846
51.899999999999           0.33471564217987027
51.919999999999           0.36513644386877925
51.939999999999           0.4043829873777594
51.959999999998985        0.4523629842968201
51.97999999999898         0.5046808126572004
51.99999999999898         0.551483521387421
52.019999999998994        0.5853180158550113
52.03999999999898         0.6033436394664573
52.05999999999898         0.6085637136967524
52.079999999998975        0.6031976614968446
52.099999999998964        0.5849510043963244
52.11999999999895         0.5508647928716014
52.139999999998935        0.5039815553794228
52.15999999999893         0.45151152426037144
52.17999999999892         0.40322958296004796
52.199999999998894        0.3636152701983543
52.21999999999888         0.33285832814068467
52.23999999999888         0.3097004286687805
52.25999999999886         0.29290252762884084
52.27999999999887         0.28149494948167797
52.29999999999886         0.2748128383817361
52.31999999999887         0.27247152398057584
52.33999999999885         0.27434193053804923
52.35999999999885         0.28054127781381566
52.37999999999884         0.2914419897526715
52.39999999999883         0.3076962332850484
52.41999999999882         0.3302614315274125
52.43999999999881         0.3603669812723087
52.45999999999881         0.39920103776120297
52.4799999999988          0.4465567927614057
52.499999999998806        0.49824768641299594
52.51999999999881         0.5444770196041961
52.53999999999882         0.5778901828906153
52.55999999999881         0.5956872787571695
52.57999999999881         0.6008424341402618
52.59999999999881         0.5955514187184513
52.61999999999878         0.5775478508292525
52.639999999998786        0.5439044523574859
52.65999999999877         0.49762322756993665
52.67999999999874         0.44581981454979946
52.69999999999873         0.39815063393832817
52.71999999999871         0.35906621799561417
52.739999999998716        0.3286845141658751
52.75999999999871         0.3058335372095619
52.7799999999987          0.28926651663721653
52.7999999999987          0.27802627305884897
52.81999999999868         0.27145676695478904
52.839999999998675        0.2691787777616916
52.859999999998664        0.2710656420716031
52.87999999999867         0.27723410930429615
52.89999999999865         0.2880531944739183
52.91999999999867         0.30416846812729437
52.93999999999864         0.326527264536059
52.959999999998644        0.35634569833713525
52.97999999999864         0.39479859121057187
52.999999999998614        0.44176423191252867
53.019999999998646        0.4928411676323466
53.03999999999865         0.5385869791229069
53.05999999999862         0.5716450266904242
53.07999999999864         0.5892495249135538
53.099999999998644        0.5943498230873965
53.119999999998626        0.5891215094906301
53.13999999999862         0.571321767944693
53.15999999999861         0.5380502631410446
53.1799999999986          0.49227498996466174
53.199999999998575        0.4410322052951861
53.219999999998564        0.39387834055257925
53.23999999999854         0.35521926863019815
53.25999999999853         0.3251772454762293
53.27999999999852         0.3025773178103991
53.29999999999852         0.28620420662473156
53.31999999999851         0.27510282301500844
53.339999999998504        0.26862570322642987
53.35999999999849         0.26639816250713116
53.37999999999848         0.26829550318017004
53.39999999999848         0.2744339965713806
53.419999999998474        0.2851796830818962
53.43999999999846         0.3011724539241295
53.459999999998466        0.323351013999256
53.47999999999847         0.3529201355888911
53.49999999999845         0.3910432936000977
53.519999999998454        0.43759838009613117
53.539999999998464        0.4882161281556016
53.55999999999846         0.5335519218854509
53.57999999999846         0.5663060123953051
53.599999999998474        0.5837461535049393
53.61999999999846         0.5887997460732497
53.63999999999846         0.5836247536777402
53.65999999999847         0.565998561486177
53.67999999999844         0.5330442751288014
53.69999999999843         0.48770092319352165
53.719999999998386        0.43693717021842854
53.73999999999839         0.39022359642658494
53.75999999999837         0.3519275991213487
53.77999999999837         0.32217090662334863
53.799999999998334        0.2997895479107403
53.819999999998345        0.28357739949773103
53.83999999999832         0.27259499454057545
53.85999999999833         0.26619454506242496
53.879999999998326        0.26400739470155365
53.8999999999983          0.2659104620130391
53.9199999999983          0.27201952378424554
53.9399999999983          0.2826979633493951
53.95999999999828         0.2985806659980776
53.97999999999828         0.3205987753796315
53.99999999999827         0.34994716931835934
54.01999999999827         0.3877794586567902
54.03999999999829         0.43397342846616055
54.05999999999828         0.48419280299284007
54.07999999999829         0.5290374647218697
54.09999999999829         0.5615952393220052
54.119999999998306        0.5789547927548563
54.139999999998295        0.5839686392667548
54.15999999999829         0.5788405680594055
54.17999999999829         0.5613657225843068
54.19999999999827         0.5286876660463649
54.21999999999824         0.48372022128496744
54.23999999999822         0.43337308856547907
54.2599999999982          0.3870421750318073
54.27999999999818         0.3490614557276125
54.29999999999818         0.3195522183832771
54.31999999999817         0.29736005209325145
54.33999999999815         0.2812887157120948
54.359999999998145        0.27040483503631835
54.379999999998155        0.26407110227095587
54.39999999999813         0.2619171286772832
54.41999999999813         0.2638228729132761
54.43999999999812         0.2699036362977164
54.45999999999811         0.28052043459498616
54.479999999998114        0.2963037302963038
54.499999999998096        0.31817801360167736
54.51999999999809         0.34732949517560546
54.539999999998095        0.38490318489141284
54.55999999999809         0.43077679071295766
54.57999999999809         0.48064282644156714
54.599999999998126        0.5251667057902221
54.61999999999813         0.5574888949480196
54.63999999999813         0.5747200954085183
54.65999999999812         0.5796985854695246
54.67999999999811         0.5746110686047771
54.69999999999811         0.5572690326711641
54.71999999999809         0.5248342869830038
54.73999999999806         0.4801983815811371
54.75999999999804         0.43021909335463704
54.77999999999802         0.38422596257591407
54.799999999998           0.34652316581049947
54.819999999998           0.31723157642698074
54.839999999997985        0.29520524486069255
54.859999999997974        0.2792566751065664
54.87999999999797         0.2684593731365677
54.89999999999795         0.26217995588393556
54.91999999999795         0.2600534154550143
54.93999999999795         0.26195833097193233
54.95999999999793         0.2680103458340377
54.97999999999795         0.2785682823325798
54.99999999999792         0.29425856387121185
55.01999999999792         0.3159996341864563
55.03999999999791         0.3449698535443589
55.05999999999792         0.3823064956286006
55.0799999999979          0.4278873593210993
55.09999999999792         0.4774314081526236
55.11999999999795         0.5216637645476367
55.13999999999796         0.5537722514986785
55.15999999999795         0.57088812492885
55.17999999999795         0.5758339037079567
55.19999999999795         0.5707829308927634
55.219999999997945        0.5535608042773765
55.23999999999791         0.5213458706042705
55.25999999999789         0.477009521810681
55.27999999999787         0.4273625900353918
55.299999999997844        0.38167445912569786
55.319999999997826        0.3442222925230992
55.33999999999783         0.3151265773397114
55.359999999997804        0.2932490142984404
55.3799999999978          0.27741000701584123
55.399999999997796        0.2666892713534894
55.41999999999778         0.26045772899760383
55.43999999999777         0.2583529122690009
55.45999999999777         0.26025519189674845
55.47999999999777         0.26627717916920396
55.499999999997755        0.2767781218922158
55.51999999999775         0.2923798420456561
55.53999999999775         0.3139951670840385
55.55999999999773         0.34279518171134304
55.57999999999774         0.37991002247843525
55.59999999999773         0.42521772015458653
55.619999999997745        0.47446211985589076
55.639999999997755        0.5184239978266556
55.65999999999777         0.5503346382516141
55.6799999999978          0.5673441131670814
55.699999999997765        0.5722598710808942
55.719999999997775        0.567242924571703
55.73999999999777         0.5501317741400078
55.75999999999774         0.5181200554077015
55.77999999999772         0.47406048320349964
55.7999999999977          0.42472039832877007
55.81999999999766         0.3793136384452128
55.83999999999766         0.34209245270772887
55.85999999999764         0.31317697150529616
55.87999999999764         0.291435949990194
55.899999999997625        0.2756970704420794
55.91999999999762         0.2650457602046476
55.9399999999976          0.25885689600254447
55.959999999997606        0.25677034863052767
55.979999999997595        0.25866733137542414
55.99999999999759         0.26466153687803645
56.01999999999758         0.2751052953412652
56.039999999997576        0.2906217943099811
56.05999999999757         0.3121169457101032
56.07999999999756         0.34075501737919484
56.09999999999758         0.3776594790983179
56.11999999999755         0.4227086282899792
56.13999999999757         0.47166969663504166
56.15999999999758         0.5153757630251321
56.17999999999758         0.5470991884439158
56.19999999999759         0.5640077465090627
56.2199999999976          0.568894768482987
56.2399999999976          0.5639103890089929
56.25999999999758         0.5469620671206368
56.279999999997585        0.5152078175471707
56.29999999999754         0.4712825700112568
56.3199999999975          0.422231054377712
56.33999999999749         0.37708880779495113
56.35999999999746         0.340084565383379
56.379999999997445        0.31133810595472816
56.39999999999746         0.28972482216180284
56.419999999997444        0.2740792398882774
56.43999999999745         0.26349214581373687
56.45999999999743         0.25734211410999447
56.47999999999742         0.25527119581019375
56.499999999997414        0.2571613895238633
56.51999999999742         0.263125805522289
56.5399999999974          0.27351695850236996
56.559999999997395        0.288949360305114
56.57999999999739         0.3103268001879668
56.59999999999738         0.3388083507214594
56.619999999997376        0.3755099742229263
56.63999999999738         0.4203102961634287
56.6599999999974          0.4689991237333151
56.679999999997406        0.5124597905942575
56.69999999999743         0.5440038176037026
56.71999999999744         0.5608158079855142
56.73999999999744         0.5656753439977402
56.759999999997454        0.5607212122746501
56.77999999999741         0.5438720804122904
56.79999999999741         0.5123001319531438
56.819999999997364        0.4686294110153002
56.83999999999734         0.4198490125505787
56.85999999999731         0.37495990666929424
56.87999999999729         0.33816326477981123
56.89999999999727         0.30957850806726456
56.919999999997266        0.2880873802143953
56.93999999999725         0.2725309572521866
56.95999999999725         0.26200515268147995
56.97999999999725         0.2558920729254971
56.99999999999724         0.25383584760602934
57.01999999999723         0.25571923409131864
57.03999999999723         0.2616548079920099
57.05999999999722         0.2719931965701719
57.079999999997206        0.28734560636810164
57.0999999999972          0.30860640478253615
57.1199999999972          0.33694209183251783
57.13999999999719         0.3734488628372491
57.15999999999719         0.41801023316465435
57.17999999999721         0.46643768200928953
57.19999999999723         0.5096627687488766
57.219999999997256        0.5410345898312812
57.239999999997266        0.5577538887302184
57.25999999999726         0.5625870452043906
57.27999999999726         0.5576619510034481
57.29999999999725         0.5409080192479274
57.31999999999723         0.5095110029259473
57.33999999999719         0.466079733191684
57.35999999999715         0.4174837567001134
57.379999999997125        0.37286053959416504
57.39999999999711         0.336320574707455
57.41999999999709         0.3078909911727838
57.43999999999708         0.28651708888812044
57.45999999999707         0.2710462213738938
57.47999999999708         0.26057921540202134
57.49999999999706         0.2545015600481216
57.519999999997054        0.25245936964241367
57.53999999999705         0.25433612140237055
57.55999999999703         0.2602438915871452
57.579999999997035        0.2705315128749492
57.59999999999704         0.2858069899194327
57.61999999999701         0.3069600147622504
57.63999999999703         0.335129052269349
57.659999999997           0.37147032564560456
57.679999999997015        0.4158018782955045
57.69999999999704         0.46397819312387933
57.71999999999706         0.5069774196148416
57.73999999999709         0.5381844415087574
57.759999999997085        0.5548153793243344
57.779999999997095        0.5596236271582443
57.799999999997084        0.5547265936503846
57.819999999997066        0.5380640935998399
57.83999999999705         0.5068349503668791
57.85999999999703         0.4636334294174509
57.87999999999698         0.4152920222585035
57.89999999999696         0.3709017074716673
57.91999999999693         0.3345306587832136
57.93999999999692         0.30627181533839504
57.9599999999969          0.2850103242082076
57.9799999999969          0.26962145786749053
57.99999999999689         0.25921075448718145
58.0199999999969          0.2531669456057867
58.03999999999688         0.25113804518360233
58.05999999999687         0.25300821379557836
58.079999999996865        0.25888904886366
58.09999999999686         0.269127688738702
58.11999999999686         0.2843290819371657
58.13999999999685         0.30537842786548397
58.15999999999685         0.33340845857999796
58.17999999999683         0.36951253364482717
58.19999999999685         0.4136005243641382
58.21999999999686         0.46161520601860384
58.23999999999687         0.504396700430768
58.25999999999689         0.5354444896690282
58.2799999999969          0.5519895812131556
58.299999999996906        0.5567732043068911
58.31999999999691         0.5519026353325082
58.3399999999969          0.5353275784747347
58.35999999999687         0.5042595192792946
58.37999999999685         0.46127876648299176
58.39999999999681         0.41318225730209246
58.41999999999679         0.36901605917151
58.43999999999676         0.3328286714046935
58.459999999996754        0.3047082843341564
58.479999999996714        0.2835592481865694
58.49999999999673         0.2682489860437688
58.51999999999671         0.25789208460954854
58.53999999999671         0.2518803907526497
58.5599999999967          0.24986373563773107
58.579999999996694        0.251726919562984
58.59999999999669         0.25758105483283866
58.61999999999667         0.26777163346978095
58.63999999999666         0.28290065794630037
58.659999999996664        0.3038489557712108
58.67999999999666         0.33174367244049735
58.69999999999666         0.36767275710822206
58.71999999999667         0.41154630399602726
58.73999999999668         0.45933125836697153
58.75999999999669         0.501896871444621
58.77999999999672         0.5327907779759616
58.79999999999672         0.5492532145714046
58.81999999999676         0.5540132554683507
58.83999999999674         0.5491682452378438
58.85999999999673         0.5326775554534718
58.879999999996706        0.5017651715917237
58.89999999999668         0.4589980017246141
58.919999999996634        0.41113870006336023
58.939999999996594        0.3671896571775531
58.959999999996576        0.3311801844539816
58.97999999999656         0.30319824830390524
58.999999999996554        0.2821547454749061
59.019999999996536        0.2669214084216499
59.03999999999652         0.2566143401467024
59.059999999996535        0.25063349492810283
59.07999999999652         0.24862839087541014
59.09999999999652         0.2504844385687719
59.1199999999965          0.2563122640528156
59.13999999999649         0.2664557475852978
59.15999999999649         0.28151404046205775
59.17999999999649         0.30236373186758486
59.19999999999647         0.3301265160014125
59.21999999999648         0.3658850691419167
59.239999999996485        0.40954973334113853
59.259999999996516        0.45710620300676796
59.27999999999654         0.49958970203381425
59.29999999999656         0.5302114509300564
59.319999999996575        0.5465938696697624
59.33999999999659         0.551331234462321
59.35999999999657         0.5465112103361575
59.379999999996585        0.5301026133865185
59.39999999999653         0.4993416019540965
59.41999999999649         0.45678208510096757
59.43999999999646         0.40915336981515077
59.45999999999642         0.3654154153299097
59.479999999996394        0.32957890185496674
59.49999999999639         0.3017315786100586
59.519999999996365        0.28078961157044124
59.53999999999636         0.2656301670394646
59.55999999999636         0.25537518909463136
59.57999999999635         0.24942280737753533
59.59999999999634         0.24742898874897107
59.61999999999635         0.2492781590508505
59.63999999999632         0.255080469655812
59.65999999999634         0.2651782297048065
59.67999999999632         0.2801678267934033
59.69999999999632         0.30092176649743324
59.719999999996304        0.3285564601093506
59.739999999996314        0.3641494584796376
59.759999999996325        0.40761133859223275
59.77999999999634         0.454945968034756
59.79999999999638         0.4972299092288724
59.8199999999964          0.5277648449777623
59.83999999999641         0.5440125557683726
59.85999999999641         0.5487270246875702
59.87999999999642         0.5439312114253493
59.89999999999641         0.5276022768703607
59.91999999999637         0.4969882408360057
59.93999999999633         0.45463041283878664
59.95999999999629         0.4072257358863364
59.97999999999626         0.3636929146253743
59.99999999999624         0.32802450200645616
60.01999999999622         0.3003080291643938
60.03999999999621         0.2794647801344071
60.0599999999962          0.2643772007763422
60.07999999999619         0.2541713711362619
60.099999999996186        0.2482490589044361
60.11999999999618         0.24626550798705274
60.139999999996164        0.24810810030953812
60.15999999999617         0.2538857380858246
60.17999999999618         0.26393920403803106
60.19999999999615         0.2788622025149566
60.219999999996155        0.29952329701533975
60.239999999996144        0.3270338057579752
60.259999999996154        0.3624663111152733
60.27999999999616         0.4057316036472964
60.29999999999619         0.4528511175785685
60.319999999996234        0.4949414378048693
60.339999999996245        0.5253357907746219
60.35999999999626         0.5415081937533616
60.37999999999626         0.546201132896474
60.39999999999626         0.5414288153349393
60.41999999999627         0.5251771419911182
60.439999999996225        0.494705696158215
60.459999999996185        0.4525435700915364
60.47999999999613         0.4053563130140027
60.4999999999961          0.36202259032881656
60.51999999999608         0.3265173553224748
60.53999999999606         0.2989279226785241
60.559999999996045        0.2781805402717327
60.57999999999605         0.2631627755154627
60.599999999996044        0.25300472142678576
60.619999999996026        0.24711090621259418
60.63999999999602         0.24513817982025266
60.659999999996           0.24697370172124505
60.679999999996           0.2527283046937863
60.69999999999602         0.2627389110075476
60.71999999999599         0.2775974117612922
60.739999999996           0.29816854873150017
60.75999999999599         0.32555872779947986
60.77999999999599         0.36083572550357534
60.799999999996004        0.4039105381870639
60.81999999999602         0.45082165198975443
60.83999999999608         0.4927244723649312
60.85999999999609         0.5229827449997589
60.879999999996116        0.5390823026654358
60.89999999999611         0.543754461342157
60.9199999999961          0.539003982442016
60.93999999999608         0.5228277800848312
60.95999999999607         0.49249434912055867
60.97999999999602         0.45052179208613213
60.99999999999598         0.40354531300798047
61.019999999995946        0.36040467620424005
61.03999999999592         0.3250577041531177
61.05999999999591         0.29759148976838595
61.079999999995884        0.2769370969886154
61.09999999999588         0.26198706234151076
61.11999999999587         0.25187537144135996
61.139999999995865        0.2460092300428369
61.15999999999586         0.24404705011183436
61.17999999999585         0.2458765372619584
61.19999999999585         0.2516065243090258
61.21999999999585         0.2615771940696821
61.23999999999584         0.27637321084541133
61.25999999999584         0.29685716221570796
61.27999999999583         0.3241306927590913
61.29999999999584         0.3592569358412701
61.319999999995844        0.4021471107245434
61.33999999999587         0.44885636177044114
61.35999999999591         0.49057787268939373
61.379999999995924        0.5207047590578426
61.39999999999594         0.5367341765103387
61.419999999995945        0.5413863822047095
61.43999999999595         0.5366576771163998
61.45999999999593         0.5204967047570768
61.479999999995904        0.4902329135624007
61.49999999999586         0.4485640871448464
61.51999999999582         0.40179187469253724
61.53999999999581         0.3588385147110843
61.55999999999577         0.3236450662606922
61.57999999999574         0.2962983798321112
61.599999999995745        0.27573419771042196
61.61999999999572         0.26084988368972895
61.63999999999572         0.25078320399337306
61.659999999995705        0.24494396583407788
61.679999999995694        0.2429920998808134
61.6999999999957          0.24481584553166677
61.71999999999568         0.25052362340683526
61.739999999995675        0.26045219135376463
61.75999999999567         0.27518986024181535
61.77999999999567         0.295589529277018
61.79999999999567         0.322750263471494
61.81999999999567         0.3577307278146458
61.839999999995676        0.40044237624780576
61.85999999999571         0.44695648248650993
61.87999999999576         0.4885027866586725
61.899999999995785        0.518502766359847
61.91999999999581         0.5344644978386653
61.939999999995806        0.5390975036844087
61.959999999995794        0.5343899008982863
61.97999999999578         0.5182987359627504
61.99999999999575         0.48816410016851064
62.01999999999572         0.44666706445941706
62.039999999995665        0.4000974038772574
62.059999999995625        0.3573251292022126
62.07999999999561         0.32228013811705725
62.09999999999558         0.29504904941430116
62.119999999995585        0.27457212541386605
62.13999999999557         0.2597513870981928
62.159999999995556        0.249728250091583
62.17999999999555         0.24391504013814258
62.199999999995555        0.24197316298998592
62.21999999999555         0.24379137565528572
62.23999999999553         0.24947770012577
62.25999999999553         0.25936755223349117
62.279999999995525        0.27404577504321226
62.299999999995514        0.2943694413983463
62.31999999999551         0.3214167887650668