% Model:              Untitled.mph
% Version:            COMSOL 5.6.0.280
% Date:               Oct 6 2021, 16:47
% Dimension:          1
% Nodes:              1015
% Expressions:        1
% Description:        线图
% cln2x                   Height
21.52                     0.2317571759937439
21.539999999999992        0.23355003082007636
21.55999999999999         0.239055602003636
21.58                     0.24859384362819625
21.599999999999994        0.2627301128987533
21.61999999999999         0.2822860386710203
21.639999999999986        0.3083174554003784
21.65999999999999         0.3418430180959199
21.679999999999996        0.38275045130528407
21.700000000000003        0.427193506334911
21.719999999999995        0.4668529016885028
21.739999999999995        0.4956439684599102
21.759999999999994        0.511005673098423
21.779999999999998        0.515487982419292
21.799999999999986        0.5110460969217067
21.819999999999983        0.4957759321277982
21.839999999999993        0.46696464820237954
21.859999999999996        0.4273327472853226
21.879999999999995        0.3829101410932837
21.89999999999999         0.3420194359188076
21.91999999999999         0.30850987777926503
21.939999999999998        0.2824950642977031
21.95999999999999         0.26295666615913516
21.97999999999999         0.24883877498490828
21.999999999999993        0.2393180687480794
22.02                     0.23383256793635204
22.039999999999992        0.23205969652183228
22.059999999999995        0.23389508646097298
22.07999999999999         0.23944473157887003
22.099999999999987        0.2490327010858613
22.119999999999994        0.26322088806495175
22.139999999999986        0.2828393167319735
22.15999999999999         0.3089447495427192
22.179999999999993        0.34255837416138396
22.199999999999992        0.38356768062825713
22.219999999999988        0.42811771622407907
22.239999999999984        0.46787076720115445
22.259999999999984        0.49672923313089284
22.279999999999983        0.5121269782981857
22.299999999999986        0.5166201716137644
22.31999999999999         0.5121688746276862
22.33999999999999         0.49686526559427746
22.359999999999992        0.4681064275933438
22.379999999999992        0.42827777001635403
22.399999999999988        0.38375386261158667
22.419999999999987        0.3427749856600109
22.43999999999999         0.3091936048942123
22.459999999999983        0.2831234942377735
22.479999999999986        0.26354407862155893
22.499999999999986        0.24939713899682517
22.51999999999998         0.23985756481570386
22.539999999999992        0.23436217279839844
22.559999999999988        0.23258771930559202
22.579999999999984        0.23442965960793752
22.599999999999984        0.2399942869925458
22.619999999999987        0.2496064668408982
22.639999999999986        0.26383047775071816
22.65999999999998         0.2834951669025344
22.67999999999998         0.3096629079880508
22.699999999999985        0.3433562381353017
22.719999999999978        0.38446244120292966
22.739999999999988        0.4291177698943531
22.759999999999977        0.4689652499235801
22.779999999999976        0.4978927692864159
22.799999999999976        0.513328040275203
22.819999999999975        0.5178329103335938
22.83999999999998         0.5133719790547664
22.859999999999978        0.49803310688007824
22.879999999999978        0.4692075722975756
22.899999999999984        0.42928651386266015
22.919999999999977        0.3845853690589825
22.93999999999997         0.3435863595977683
22.959999999999976        0.3099280125895609
22.979999999999976        0.2837986074990951
22.99999999999998         0.26417519587886307
23.019999999999975        0.24999709142627385
23.039999999999974        0.24043726587754885
23.05999999999997         0.2349312455363481
23.079999999999977        0.23315507242308936
23.099999999999973        0.2350040143914609
23.119999999999976        0.24058468863499327
23.139999999999972        0.25022281858708595
23.15999999999997         0.26448413001055837
23.17999999999997         0.2841953502091543
23.19999999999997         0.3104138263311512
23.21999999999997         0.3442131349970582
23.239999999999977        0.3854234610117717
23.259999999999977        0.43019196389446307
23.27999999999997         0.47014094187275196
23.29999999999997         0.4991427335944365
23.319999999999965        0.514618427765382
23.339999999999964        0.5191359997433083
23.35999999999997         0.5146648978614652
23.379999999999967        0.49928829731876545
23.399999999999967        0.47039120400403056
23.419999999999966        0.43037088624252284
23.439999999999973        0.3855588632639046
23.459999999999965        0.34440524634355335
23.479999999999972        0.31071729825645217
23.499999999999964        0.28452400569258623
23.519999999999964        0.26485313001782684
23.53999999999996         0.25064134412952477
23.559999999999967        0.24105955679909954
23.579999999999966        0.23554190261227312
23.599999999999962        0.2337636515985012
23.619999999999965        0.23561986584726097
23.639999999999958        0.24121750595779307
23.659999999999965        0.25088321242454314
23.679999999999968        0.2651842608186393
23.69999999999996         0.284949620752525
23.719999999999956        0.31123949778836435
23.73999999999996         0.3450770614686781
23.75999999999996         0.38645206683198824
23.779999999999955        0.43134157747160057
23.799999999999965        0.47139893416880807
23.819999999999954        0.5004799262089642
23.839999999999957        0.5159985564504422
23.85999999999996         0.5205293880181011
23.87999999999996         0.5160469533788296
23.899999999999952        0.5006293909280332
23.919999999999956        0.4716552587626628
23.939999999999962        0.43152849025923296
23.959999999999955        0.38659803953817173
23.979999999999958        0.34533617213866813
23.99999999999995         0.3115395046156353
24.01999999999995         0.2852941669312489
24.03999999999995         0.26557671752867845
24.05999999999995         0.2513287889642546
24.079999999999952        0.24172333794596554
24.099999999999948        0.23619301387539893
24.11999999999995         0.23441225885898676
24.139999999999954        0.23627590876026797
24.159999999999958        0.24189128042777114
24.179999999999954        0.25158597807862515
24.19999999999995         0.26592890991131385
24.219999999999953        0.2857514081837189
24.239999999999945        0.3121166888237457
24.25999999999995         0.34605083962075317
24.279999999999944        0.38746894538239496
24.299999999999944        0.4325613996468798
24.31999999999994         0.47273409273098066
24.339999999999954        0.5018997242892962
24.359999999999946        0.5174647034789036
24.379999999999946        0.5220103593377999
24.39999999999995         0.5175167642337241
24.419999999999945        0.5020567659732894
24.43999999999994         0.4730015932377943
24.459999999999944        0.43276205710450966
24.479999999999936        0.3877051911224139
24.499999999999943        0.346327391919292
24.519999999999946        0.31243608836469117
24.53999999999994         0.2861176526629173
24.559999999999935        0.26634679956730556
24.579999999999934        0.2520590023170965
24.599999999999937        0.24242806066263048
24.619999999999933        0.23688396308999055
24.639999999999933        0.2351002528626046
24.659999999999936        0.23697151206706155
24.679999999999932        0.24260542674354293
24.699999999999942        0.252330618463558
24.71999999999994         0.2667177262674745
24.739999999999938        0.2866005929899674
24.759999999999934        0.31304563850587397
24.779999999999934        0.34708205666411657
24.799999999999933        0.3886247700316687
24.819999999999933        0.43385804778188464
24.839999999999936        0.4742639265445216
24.859999999999943        0.5034017858326489
24.879999999999942        0.5190150327741725
24.899999999999938        0.5235757054184497
24.91999999999993         0.5190696565782484
24.939999999999934        0.5035640713286847
24.95999999999993         0.47442266722710885
24.979999999999936        0.43406362795030734
24.99999999999993         0.38887332852063117
25.01999999999993         0.3473733481431477
25.03999999999993         0.3133822981771857
25.059999999999935        0.2869867665649267
25.079999999999927        0.26715841514862854
25.09999999999993         0.2528315413493236
25.11999999999993         0.2431716114993899
25.13999999999993         0.23761283979657144
25.15999999999993         0.2358258522738272
25.17999999999993         0.23770496062150334
25.19999999999993         0.24335823662025208
25.219999999999935        0.25311536987114835
25.23999999999993         0.26754881795073454
25.259999999999923        0.28749506186651613
25.27999999999993         0.3140238879694957
25.299999999999926        0.3481677523068935
25.31999999999993         0.3898414067140009
25.339999999999925        0.4352174295404183
25.35999999999992         0.4757514698683202
25.379999999999928        0.5050375129236478
25.39999999999993         0.520646410389814
25.41999999999993         0.5252226762767874
25.439999999999923        0.5207031025042445
25.459999999999923        0.5051489531896501
25.479999999999915        0.47591631873442736
25.499999999999922        0.4354312646890117
25.51999999999993         0.3901007422561998
25.539999999999925        0.34847254260743954
25.55999999999992         0.31437682220668245
25.579999999999927        0.2879003603325276
25.599999999999923        0.26801161929209316
25.61999999999992         0.25364160175607314
25.639999999999922        0.24395473397174167
25.65999999999992         0.23837972197618698
25.679999999999918        0.23658843992351616
25.699999999999918        0.23847569792452744
25.719999999999914        0.24414920250837452
25.739999999999913        0.25393976063430757
25.75999999999992         0.2684217334824552
25.77999999999992         0.28843436327734634
25.799999999999923        0.3150509583077752
25.819999999999915        0.3493073861462284
25.83999999999991         0.39111823106549914
25.859999999999914        0.43664390937138353
25.879999999999914        0.47731252471878727
25.899999999999913        0.5066966778251732
25.91999999999991         0.5223596974469417
25.939999999999916        0.5269519857578893
25.959999999999916        0.5224188849858726
25.979999999999908        0.5068146983725075
25.999999999999908        0.47748704078807586
26.01999999999991         0.4368700535439682
26.0399999999999          0.3913918616405851
26.059999999999903        0.3496283074972038
26.079999999999906        0.3154220766570077
26.099999999999913        0.28886020511326027
26.119999999999916        0.2689077502484196
26.139999999999905        0.25449219994419836
26.15999999999991         0.2447752587803079
26.179999999999907        0.23918379652061986
26.19999999999991         0.2373886434011143
26.219999999999906        0.239284288047087
26.23999999999991         0.2449788556709692
26.25999999999991         0.2548043123129581
26.279999999999905        0.26933700690923695
26.29999999999991         0.28941906776117426
26.319999999999904        0.3161274847400684
26.339999999999893        0.3505016894357589
26.359999999999907        0.39245609044821905
26.379999999999903        0.4381384113925698
26.399999999999906        0.4789479598737775
26.419999999999902        0.508434866881807
26.439999999999905        0.5241537367617728
26.4599999999999          0.5287634297875706
26.479999999999908        0.5242149024710736
26.4999999999999          0.5085584345177795
26.5199999999999          0.47913072139239926
26.5399999999999          0.43837525966111324
26.559999999999896        0.3927425890287711
26.579999999999895        0.35083763004460594
26.599999999999895        0.31651595694195606
26.619999999999894        0.2898648387680287
26.639999999999894        0.269845788437556
26.659999999999904        0.2553826321582927
26.679999999999897        0.24563422747516753
26.69999999999989         0.2400255293040977
26.719999999999892        0.23822629232791206
26.739999999999895        0.24012992462759536
26.759999999999895        0.24584727822447575
26.779999999999898        0.2557092464042141
26.79999999999989         0.27029503401402444
26.81999999999989         0.29044980605902043
26.839999999999897        0.31725442804538895
26.859999999999893        0.35175207986378315
26.879999999999896        0.3938569428110974
26.89999999999989         0.43970320542349134
26.91999999999989         0.4806597227426579
26.93999999999989         0.5102534065219876
26.95999999999989         0.5260298532743981
26.97999999999989         0.5306569909468875
26.9999999999999          0.5260924929674715
27.019999999999893        0.5103240048395805
27.03999999999989         0.4808470021698154
27.059999999999892        0.4399465133542322
27.079999999999885        0.39415256019663997
27.099999999999884        0.35210014589136046
27.119999999999884        0.3176580861096967
27.13999999999989         0.2909138583249533
27.159999999999886        0.2708252916034855
27.179999999999886        0.2563124063426234
27.19999999999989         0.24653109094092626
27.219999999999878        0.24090429163877586
27.239999999999878        0.23910064608356144
27.259999999999877        0.24101323812703523
27.279999999999884        0.2467518456198505
27.299999999999887        0.25665120268689423
27.31999999999988         0.2712940750306181
27.339999999999872        0.29152431999257195
27.35999999999989         0.31842879797914325
27.379999999999885        0.3530545603032827
27.399999999999878        0.39531560291700724
27.419999999999877        0.4413323539443252
27.439999999999884        0.482442368146135
27.45999999999988         0.5121480130449648
27.47999999999988         0.5279853610335781
27.49999999999988         0.5326314950103334
27.519999999999882        0.5280512459751292
27.53999999999989         0.5122250675174563
27.55999999999988         0.4825206154735456
27.579999999999874        0.44158821473970633
27.599999999999874        0.39562563172648535
27.619999999999877        0.353418672846745
27.639999999999876        0.31885040594651554
27.659999999999876        0.29200859704873405
27.67999999999987         0.27184719140342606
27.699999999999875        0.25728219499066834
27.719999999999878        0.24746636665409472
27.739999999999874        0.2418205270538432
27.759999999999874        0.24001212370418573
27.779999999999873        0.24193390237156828
27.799999999999876        0.2476961068807281
27.819999999999872        0.2576347842628592
27.839999999999872        0.27233388153376675
27.85999999999987         0.2926437447664319
27.87999999999987         0.31965218517491895
27.89999999999987         0.3544113682357822
27.91999999999987         0.39683508038804816
27.939999999999873        0.4430293051494766
27.95999999999987         0.48429885297130787
27.97999999999987         0.5141206614475434
27.999999999999872        0.530020923560282
28.019999999999868        0.5346863325665246
28.039999999999868        0.5300890727056454
28.059999999999867        0.5142020885849191
28.079999999999874        0.48438359849327967
28.099999999999866        0.443289320875617
28.119999999999862        0.39723325130404363
28.139999999999862        0.3547892239918075
28.15999999999986         0.3200899779240215
28.179999999999865        0.2931468507568124
28.19999999999986         0.27290977756230056
28.219999999999864        0.25829061672738945
28.23999999999986         0.248438890768572
28.259999999999863        0.2427732183008514
28.279999999999863        0.24095980416022025
28.299999999999855        0.24289103994700362
28.319999999999865        0.2486776658477273
28.33999999999986         0.2586570989940477
28.359999999999864        0.27341562949777
28.379999999999864        0.2938113586085796
28.399999999999856        0.32092335302130365
28.419999999999856        0.3558210562619191
28.43999999999987         0.39841367939196404
28.459999999999866        0.44479215634500635
28.479999999999862        0.48622722629863885
28.499999999999858        0.516169472105074
28.519999999999865        0.5321348567344268
28.539999999999864        0.5368201177451982
28.559999999999864        0.5322050685483285
28.579999999999856        0.5162548339264663
28.599999999999856        0.4863178420834202
28.619999999999862        0.4450606731070495
28.639999999999855        0.3988229455091338
28.65999999999985         0.35626713912308844
28.679999999999847        0.3213768608422393
28.699999999999854        0.2943285123371173
28.71999999999985         0.27401283559046674
28.73999999999985         0.2593373854212075
28.75999999999985         0.2494483250375882
28.77999999999985         0.2437619874269575
28.799999999999855        0.24194328292636116
28.819999999999848        0.243884221864556
28.839999999999847        0.24969605462013192
28.859999999999843        0.25971762535922477
28.87999999999985         0.27453765390363405
28.899999999999846        0.2950177757223301
28.91999999999985         0.32226261733134853
28.939999999999845        0.35733780763287704
28.959999999999845        0.40005025116487425
28.97999999999986         0.44661960975368925
28.99999999999985         0.4882261635204964
29.019999999999854        0.5182931690694644
29.039999999999853        0.5343259918941337
29.059999999999853        0.5390317829986602
29.07999999999985         0.5343982585915124
29.09999999999984         0.5183824375217632
29.11999999999985         0.48832259879837153
29.139999999999855        0.4468965845238042
29.159999999999854        0.40047056803274117
29.179999999999847        0.3577420956828409
29.19999999999984         0.32273181690496233
29.219999999999843        0.29555324213007356
29.23999999999984         0.27515607540966314
29.259999999999835        0.2604222503624667
29.279999999999845        0.25049444847842967
29.29999999999984         0.24478663293140832
29.319999999999837        0.24296237164832807
29.339999999999844        0.24491327460468493
29.35999999999984         0.25075110747779344
29.379999999999836        0.26081618727890554
29.39999999999984         0.2756997520246719
29.419999999999835        0.29626709203508766
29.43999999999984         0.32362750762467524
29.45999999999983         0.3588511628038357
29.479999999999833        0.40182178282984277
29.49999999999985         0.4485110964848153
29.519999999999847        0.4902950903635223
29.53999999999984         0.5204912054057097
29.55999999999983         0.5365938083003587
29.57999999999984         0.541320729770309
29.599999999999838        0.5366677796622948
29.619999999999834        0.5205836200058782
29.639999999999834        0.4903962696087236
29.659999999999833        0.44879531179225174
29.67999999999982         0.40217462044260827
29.699999999999832        0.3592678085774422
29.719999999999825        0.3241118457092006
29.739999999999828        0.29682494367126544
29.759999999999827        0.2763380931136986
29.77999999999983         0.26154504776200554
29.79999999999983         0.2515772032219204
29.81999999999983         0.24584717724157418
29.839999999999826        0.24401715242460434
29.859999999999832        0.24597832617508508
29.879999999999832        0.2518429942562208
29.899999999999817        0.26195298597691746
29.91999999999982         0.27690213257897156
29.93999999999982         0.29755949732066966
29.95999999999983         0.3250392064334034
29.97999999999983         0.36041610077997077
29.999999999999822        0.4035735906525375
30.01999999999983         0.4504614989833345
30.03999999999984         0.49231338376028155
30.059999999999828        0.5227642305626647
30.079999999999828        0.5389395215438755
30.099999999999824        0.543688833614244
30.119999999999827        0.53901646795286
30.139999999999826        0.5228624885755165
30.159999999999823        0.4925439131139883
30.17999999999981         0.4507623565435663
30.199999999999815        0.4039399452504245
30.21999999999982         0.3608480436931136
30.239999999999817        0.3255408831304743
30.259999999999813        0.29813705313057703
30.279999999999813        0.2775628554299082
30.299999999999812        0.2627051977181259
30.319999999999816        0.25269784420652697
30.339999999999815        0.24694474064050848
30.359999999999815        0.2451086712002453
30.379999999999814        0.24708040097588602
30.39999999999982         0.25297277270657686
30.419999999999817        0.26312918231169646
30.439999999999817        0.2781461498221543
30.45999999999982         0.29889665573739377
30.47999999999982         0.32649984108521113
30.499999999999815        0.3620354046942892
30.51999999999981         0.40538638717746
30.53999999999981         0.4524849257139012
30.55999999999981         0.4945257693947184
30.579999999999814        0.5250576853265911
30.599999999999813        0.5413644411810973
30.61999999999981         0.5461360021305476
30.63999999999981         0.5414424155401636
30.659999999999815        0.5252148162128009
30.679999999999808        0.49475949462962915
30.699999999999804        0.452790706380399
30.719999999999803        0.4057603765779517
30.739999999999807        0.36247818308975993
30.759999999999817        0.3270156138614661
30.77999999999981         0.29949155465228516
30.799999999999805        0.2788274905694251
30.819999999999812        0.2639054083623402
30.839999999999808        0.25385368094897454
30.8599999999998          0.24807836153859159
30.879999999999804        0.2462360387966477
30.899999999999803        0.24821861410774415
30.919999999999806        0.2541394954110671
30.939999999999813        0.26434369177527467
30.95999999999981         0.27943048995486147
30.979999999999805        0.30027689823319825
30.999999999999805        0.3280072100879274
31.019999999999804        0.3637061172675916
31.039999999999807        0.4072563228418732
31.059999999999803        0.4545719694532257
31.079999999999806        0.49680807175395053
31.099999999999813        0.527482945429701
31.11999999999981         0.5438665930503883
31.139999999999798        0.5486627385157459
31.1599999999998          0.5439483001679429
31.1799999999998          0.5276460567690067
31.199999999999797        0.4970506164785516
31.2199999999998          0.4548890965161871
31.23999999999979         0.40764356818896474
31.25999999999981         0.36416393987771817
31.279999999999795        0.32854009509632187
31.29999999999981         0.3008913260896211
31.319999999999787        0.2801340806460336
31.33999999999979         0.26514517790514525
31.35999999999979         0.2550490044864439
31.379999999999797        0.24924810726500246
31.399999999999803        0.24739992340280328
31.419999999999796        0.2493935021899923
31.439999999999795        0.25534361321346
31.459999999999795        0.26559692549129876
31.4799999999998          0.28075557261925743
31.499999999999787        0.3017007116547602
31.51999999999979         0.32956194604016326
31.53999999999979         0.3654291144575635
31.559999999999796        0.40918457304382366
31.579999999999796        0.4567239158898998
31.59999999999979         0.4991611958540839
31.619999999999788        0.5299833287655273
31.639999999999787        0.5464468994707045
31.659999999999794        0.5512671889004379
31.67999999999978         0.5465314751440709
31.699999999999783        0.5301505266522908
31.719999999999782        0.4994098981135904
31.739999999999796        0.4570493015846927
31.75999999999978         0.4095823062926575
31.77999999999978         0.3658998213072442
31.79999999999978         0.3301102937656177
31.81999999999978         0.30233337568991026
31.83999999999978         0.2814803636226804
31.85999999999978         0.26642276429375145
31.879999999999768        0.2562808692236803
31.899999999999768        0.25045445771783503
31.919999999999774        0.24859939460454314
31.939999999999767        0.2506050477065758
31.959999999999773        0.25658439021509827
31.97999999999978         0.26688818804887565
31.99999999999978         0.2821207061387195
32.019999999999776        0.30316736817055184
32.039999999999786        0.33116323699313094
32.059999999999775        0.36720344366650526
32.07999999999978         0.4111700063161698
32.09999999999978         0.4589395271823853
32.11999999999978         0.5015840123109361
32.13999999999979         0.5325579431457969
32.15999999999978         0.5491040479990243
32.17999999999979         0.55394944131997
32.199999999999775        0.5491911106929175
32.21999999999978         0.5327884532748857
32.23999999999978         0.5018401803550754
32.25999999999977         0.4592746735151846
32.279999999999774        0.41157954150315723
32.29999999999977         0.3676880165573793
32.31999999999977         0.33172775154159223
32.33999999999977         0.30381878553961245
32.35999999999977         0.28286711164855494
32.37999999999977         0.26773875037822215
32.399999999999764        0.25754973768130446
32.41999999999976         0.2516969951518399
32.43999999999976         0.2498347723421517
32.459999999999766        0.25185194833256225
32.47999999999977         0.25786368790661585
32.499999999999766        0.26821982058785504
32.51999999999977         0.28352615925090835
32.539999999999765        0.3046771558651831
32.55999999999977         0.3328114066067947
32.57999999999978         0.3690294846942114
32.599999999999774        0.4132130732201397
32.619999999999784        0.4612192953326334
32.63999999999977         0.5040769732348565
32.659999999999776        0.5352071649623582
32.67999999999978         0.5518382846741543
32.699999999999775        0.5567095156892158
32.71999999999978         0.5519277985976097
32.73999999999977         0.5354429261618998
32.75999999999978         0.5044645100311188
32.779999999999745        0.4615642884932247
32.79999999999976         0.4136347160133691
32.81999999999976         0.3695285230737594
32.83999999999976         0.3333930080146299
32.859999999999765        0.3053485793629702
32.87999999999976         0.28429578428820956
32.899999999999764        0.2690950178130284
32.91999999999975         0.2588579233379845
32.93999999999975         0.25297846887517894
32.95999999999975         0.251109254453926
32.979999999999784        0.2531386722801959
32.999999999999766        0.2591825256681851
33.019999999999754        0.2695924590394112
33.03999999999976         0.28497851488769516
33.059999999999754        0.306236321284376
33.07999999999976         0.33451364180679755
33.09999999999976         0.3709155431123626
33.11999999999976         0.41532336112930984
33.13999999999976         0.46357410909484553
33.15999999999977         0.5066520384308814
33.17999999999975         0.5379436952909469
33.199999999999754        0.5546626649365611
33.21999999999976         0.5595605206179439
33.23999999999976         0.5547544243061181
33.25999999999975         0.5381843082506682
33.27999999999975         0.5070471697725084
33.29999999999974         0.4639337656266127
33.31999999999975         0.4156773067281358
33.33999999999976         0.3714303224145343
33.35999999999975         0.335114509888815
33.37999999999975         0.3069308361020659
33.39999999999975         0.2857742334513518
33.41999999999975         0.27049931618164763
33.43999999999974         0.2602132097240354
33.459999999999745        0.25430681463255905
33.47999999999974         0.25243103369635655
33.49999999999974         0.254473781141944
33.51999999999974         0.2605515474613381
33.53999999999975         0.2710178827930238
33.55999999999975         0.2864860790285909
33.579999999999735        0.3078519439306293
33.599999999999746        0.3362829720000568
33.61999999999974         0.37287641108287467
33.639999999999745        0.41751777259347067
33.65999999999975         0.4660230086463044
33.679999999999744        0.5093298606096657
33.69999999999977         0.5407891806863937
33.71999999999974         0.5575991839350133
33.739999999999746        0.5625245094382813
33.75999999999974         0.5576929625449283
33.77999999999975         0.5410341972951781
33.79999999999974         0.5097321114568055
33.819999999999744        0.4663920005022004
33.83999999999974         0.41788416914507676
33.85999999999974         0.37335051834831706
33.87999999999975         0.33690511553057056
33.899999999999736        0.3085769397124187
33.91999999999974         0.28731266143117085
33.939999999999735        0.27196089295904136
33.95999999999974         0.2616240821398678
33.979999999999734        0.2556899304745857
33.99999999999973         0.25380755092664964
34.01999999999973         0.25586436227073606
34.03999999999972         0.2619775773587563
34.05999999999975         0.2725027314144227
34.079999999999735        0.2880564944648648
34.09999999999973         0.30953957195190046
34.11999999999974         0.33810369326968553
34.13999999999974         0.37486071492337136
34.15999999999974         0.4198027584362376
34.17999999999974         0.468572935192765
34.19999999999974         0.5121186307080665
34.21999999999974         0.543753197586983
34.23999999999975         0.5606587080952486
34.25999999999974         0.5656130663345563
34.27999999999974         0.5607551211302054
34.299999999999734        0.5440039328736507
34.31999999999973         0.5125299028260025
34.339999999999726        0.46895354884328816
34.35999999999972         0.42018391884577966
34.379999999999725        0.375411450950537
34.39999999999972         0.3387493324230955
34.41999999999973         0.31029288544620626
34.43999999999972         0.2889165116084738
34.459999999999724        0.2734847351829743
34.47999999999973         0.26309514882965246
34.499999999999716        0.25713214104565035
34.51999999999972         0.25524293311672663
34.53999999999972         0.25731440601114136
34.55999999999972         0.2634645254883023
34.57999999999973         0.27405089490369455
34.59999999999974         0.289693696721355
34.61999999999972         0.31129872434420114