% Model:              Untitled.mph
% Version:            COMSOL 5.6.0.280
% Date:               Oct 15 2021, 11:18
% Dimension:          1
% Nodes:              994
% Expressions:        1
% Description:        线图
% cln2x                   Height
21.91                     0.03899379031479628
21.920000000000027        0.03904383341559537
21.94000000000003         0.03943848958041609
21.96000000000003         0.040243782923711315
21.980000000000036        0.04149983498496091
22.00000000000004         0.043271189611951644
22.020000000000042        0.04565187592170746
22.040000000000045        0.048771976520594215
22.060000000000045        0.052803579608830135
22.080000000000048        0.05795698640526673
22.100000000000048        0.06443347839100952
22.12000000000006         0.0722455729175739
22.140000000000054        0.08067219799257626
22.16000000000005         0.08819611370373927
22.180000000000042        0.09368337786184337
22.20000000000005         0.09664442912683899
22.22000000000005         0.09753117920307787
22.240000000000055        0.09669713381582931
22.260000000000062        0.09379813160646955
22.280000000000076        0.08837207862371539
22.300000000000065        0.08087374691990186
22.320000000000068        0.07247483994245774
22.340000000000067        0.06471823223961526
22.360000000000074        0.058284688273357324
22.38000000000007         0.05317629356537351
22.40000000000007         0.04919159741089886
22.420000000000076        0.0461201096598497
22.440000000000087        0.04378991105414802
22.46000000000009         0.04207062781934226
22.480000000000093        0.040868188665298955
22.500000000000092        0.04011816161463654
22.520000000000092        0.039780660230791194
22.54000000000009         0.03983707690957178
22.560000000000088        0.0402885329784593
22.58000000000009         0.04115594488216718
22.6000000000001          0.042481709580073516
22.620000000000104        0.04433311488022279
22.640000000000107        0.04680757982823344
22.6600000000001          0.0500392866013978
22.680000000000106        0.05420694367391181
22.700000000000113        0.05952782576802407
22.720000000000105        0.0662098667309893
22.74000000000011         0.07424581130950084
22.76000000000011         0.08292032722579339
22.78000000000011         0.09066248505663031
22.800000000000107        0.09630713492594824
22.820000000000107        0.099351968914983
22.840000000000114        0.10026283397884994
22.860000000000113        0.09940424061005276
22.880000000000116        0.09642315976046288
22.900000000000134        0.09084517664770977
22.920000000000126        0.08313829278266212
22.940000000000126        0.07452157969720251
22.96000000000013         0.06654791888410985
22.98000000000013         0.05993288236234337
23.00000000000013         0.0546837439259714
23.020000000000127        0.05059236899066272
23.040000000000138        0.04744104336822942
23.060000000000144        0.045052082801438596
23.080000000000144        0.04329149809416658
23.100000000000147        0.04206264808625901
23.12000000000015         0.041299386595050905
23.14000000000015         0.04096082626675527
23.160000000000156        0.041027983971908016
23.180000000000152        0.04150219379049976
23.200000000000156        0.04240518400813097
23.220000000000166        0.043780572118435744
23.24000000000016         0.04569828964929188
23.26000000000016         0.048258848168442
23.28000000000016         0.051601127001389545
23.30000000000017         0.0559087417779913
23.320000000000174        0.06140625869823561
23.340000000000163        0.06830813794103925
23.36000000000017         0.07660663739072852
23.380000000000173        0.08556311744509687
23.400000000000166        0.09355601093267728
23.42000000000017         0.09938303522990495
23.44000000000017         0.1025261488401076
23.460000000000164        0.10346660299106965
23.48000000000017         0.10258083297861277
23.500000000000178        0.09949470104742203
23.520000000000184        0.09372821209537104
23.54000000000019         0.08579923544001844
23.56000000000019         0.07691115212010032
23.58000000000019         0.06868688561885768
23.60000000000019         0.06186530187532764
23.6200000000002          0.056453753995893266
23.640000000000196        0.05223739644264615
23.6600000000002          0.048991523046893914
23.680000000000213        0.046532750744259097
23.70000000000021         0.04472283093859704
23.72000000000021         0.04346209540625614
23.74000000000021         0.04268237350253717
23.760000000000208        0.04234161243046171
23.780000000000207        0.0424202697217904
23.80000000000021         0.042919981506617126
23.820000000000213        0.04386339644987062
23.84000000000023         0.045296077124468884
23.860000000000216        0.047290166954132365
23.880000000000223        0.04995003418273457
23.900000000000222        0.05341960924184704
23.920000000000222        0.05788914096806166
23.940000000000232        0.06359126246146497
23.960000000000235        0.0707480725422315
23.98000000000023         0.07935135320421885
24.000000000000234        0.08863548455117873
24.020000000000227        0.09692010246234317
24.040000000000223        0.10297076330114631
24.060000000000223        0.10621798562267798
24.08000000000023         0.10719343739980525
24.100000000000225        0.10627699155779868
24.120000000000232        0.10308117973602446
24.14000000000024         0.09710888113739534
24.160000000000245        0.08889676883361815
24.180000000000245        0.07969170537375177
24.200000000000255        0.07117505442502094
24.22000000000026         0.06411217569523123
24.240000000000254        0.058510580777115836
24.26000000000026         0.05414765191396443
24.280000000000264        0.05079060635111639
24.300000000000278        0.04824980405803221
24.320000000000267        0.04638119129009192
24.340000000000266        0.04508202511796506
24.36000000000027         0.044281773330782676
24.380000000000273        0.04393694892792638
24.400000000000272        0.04402754380992278
24.42000000000027         0.04455534946422421
24.440000000000264        0.045544060573126675
24.46000000000029         0.04704117286223952
24.48000000000028         0.049121800610508824
24.50000000000028         0.05189454749676928
24.520000000000284        0.055509135803034675
24.540000000000287        0.06016342794582189
24.56000000000029         0.06609932568650302
24.58000000000029         0.07353612470429738
24.60000000000029         0.08248387421464407
24.620000000000292        0.0921600672414312
24.640000000000292        0.10080246108946601
24.660000000000288        0.10707316245906778
24.680000000000287        0.11045196356110422
24.700000000000294        0.11146798153823544
24.720000000000294        0.11051660680732661
24.74000000000029         0.10719513640037108
24.760000000000296        0.10098673297297951
24.780000000000307        0.09244956358997894
24.80000000000031         0.0828803482012756
24.82000000000031         0.07402756248045923
24.840000000000312        0.06668704121544194
24.860000000000316        0.06086547087740184
24.88000000000032         0.05633460598435766
24.90000000000032         0.052849204614128
24.92000000000032         0.0502123897463249
24.94000000000033         0.04827546808312079
24.960000000000328        0.046931195496626145
24.98000000000033         0.04610628649120372
25.000000000000327        0.04575562015706621
25.020000000000344        0.045858524679120494
25.040000000000333        0.04641703538840479
25.060000000000336        0.04745601238668252
25.080000000000336        0.049025126828719935
25.100000000000342        0.05120284817481224
25.120000000000342        0.05410301148118961
25.14000000000034         0.057880743666694066
25.16000000000034         0.06274225904231409
25.18000000000035         0.06893855901303586
25.200000000000347        0.07670932219992985
25.220000000000343        0.08605156293839664
25.240000000000343        0.09615321065652188
25.260000000000346        0.10517511497965866
25.280000000000342        0.11172129027837976
25.300000000000338        0.11524914645127843
25.320000000000338        0.11631117504914829
25.340000000000334        0.11532028776756247
25.36000000000034         0.1118564422261912
25.380000000000347        0.10538038413046233
25.40000000000035         0.09647530337028158
25.420000000000368        0.08647553336246007
25.440000000000364        0.07724587547633026
25.46000000000037         0.0695972984280581
25.480000000000373        0.06353157579393172
25.500000000000377        0.058808260897654
25.520000000000376        0.05517618575536901
25.54000000000038         0.052429966619007264
25.56000000000039         0.050414535960667826
25.580000000000382        0.04901802949468629
25.60000000000038         0.0481640088373469
25.62000000000039         0.04780546517208712
25.640000000000384        0.04792094645098564
25.660000000000387        0.048512735402060164
25.680000000000398        0.049607166208574034
25.700000000000394        0.051256060887343836
25.7200000000004          0.053541724928899935
25.740000000000396        0.05658283586682775
25.7600000000004          0.06054276185029294
25.780000000000403        0.06563696330132517
25.800000000000406        0.0721281657416651
25.82000000000041         0.08026717577823962
25.840000000000412        0.09005066727443893
25.860000000000404        0.10062835737788685
25.880000000000397        0.11007501714144284
25.900000000000404        0.11692954983293856
25.920000000000393        0.12062425430890558
25.940000000000385        0.12173773059925892
25.9600000000004          0.1207027596280723
25.9800000000004          0.11709168922759339
26.00000000000041         0.11032920154855755
26.020000000000408        0.10098424679806448
26.040000000000422        0.09052028084771518
26.06000000000042         0.08086280138911328
26.08000000000043         0.07286063941732465
26.100000000000428        0.06651561234046227
26.120000000000427        0.06157600142556455
26.140000000000434        0.05777887503819614
26.160000000000434        0.05490924976477792
26.180000000000454        0.05280487044886397
26.200000000000443        0.051348763107094186
26.220000000000443        0.05046091156647325
26.240000000000443        0.05009242851478248
26.260000000000446        0.05022077990110038
26.280000000000445        0.05084850390517834
26.30000000000045         0.052003163082098236
26.320000000000448        0.053739528181364134
26.34000000000046         0.056143948864640164
26.360000000000458        0.05934104294929234
26.380000000000457        0.06350231865041613
26.400000000000457        0.06885394051026202
26.420000000000456        0.07567164217631397
26.440000000000456        0.08421855684112782
26.460000000000463        0.09449100227144938
26.48000000000046         0.10559638534212384
26.50000000000046         0.11548626227182104
26.520000000000454        0.12269726754235181
26.540000000000457        0.1265899691068637
26.560000000000457        0.12776068174102984
26.580000000000457        0.1266763169608163
26.60000000000045         0.12288837060283772
26.62000000000046         0.11579303822563246
26.640000000000462        0.10598745183864863
26.660000000000476        0.09500772273282948
26.680000000000483        0.0848748439522245
26.70000000000048         0.0764796887820209
26.720000000000482        0.06982409436199116
26.740000000000485        0.06464381777758832
26.76000000000049         0.06066239596851554
26.78000000000049         0.05765519345914179
26.8000000000005          0.05545146418499021
26.8200000000005          0.05392839811791521
26.840000000000497        0.05300220921438761
26.860000000000497        0.05262145362406221
26.880000000000507        0.05276276767747353
26.900000000000503        0.053428921338107595
26.920000000000503        0.05464899407225387
26.940000000000506        0.056480677819667924
26.96000000000051         0.059014873856877065
26.980000000000512        0.06238272939359012
27.000000000000522        0.06676470712904087
27.02000000000051         0.07239874333760547
27.040000000000518        0.07958042958762102
27.060000000000517        0.08858377555702886
27.080000000000517        0.09939881749818127
27.100000000000517        0.11106405152364239
27.12000000000051         0.12147132722615041
27.140000000000505        0.12905926310132637
27.160000000000508        0.1331561713027421
27.180000000000504        0.134389484919941
27.20000000000051         0.1332505962619414
27.220000000000514        0.12926782329035294
27.24000000000051         0.12180603174742186
27.260000000000524        0.1114933686316195
27.28000000000053         0.09994585121182224
27.30000000000054         0.0892895332382182
27.32000000000054         0.08046710496824151
27.340000000000543        0.0734652904111136
27.36000000000054         0.06801851760455459
27.380000000000543        0.06383475874512375
27.40000000000055         0.06067585147927038
27.420000000000545        0.05836238294681405
27.44000000000055         0.056765188984791826
27.46000000000056         0.055796173330780165
27.480000000000555        0.055401304287703027
27.500000000000558        0.055556146789854204
27.520000000000557        0.05626377127190681
27.540000000000564        0.057554921880372534
27.560000000000556        0.05949047532862247
27.58000000000057         0.062165822682173195
27.600000000000577        0.0657201764261074
27.62000000000057         0.0703437588666295
27.64000000000057         0.07628820328084017
27.660000000000572        0.08386090941584362
27.680000000000568        0.09335497871399906
27.70000000000057         0.1047585288192428
27.72000000000057         0.1170580322130349
27.740000000000563        0.12803128446267723
27.76000000000056         0.1360322756321964
27.780000000000555        0.14035293578247915
27.80000000000057         0.1416547631497476
27.820000000000558        0.1404559545975279
27.840000000000565        0.1362594258339458
27.86000000000057         0.12836499935871942
27.880000000000575        0.11752632445211954
27.90000000000058         0.10537766718954918
27.920000000000606        0.09414191625162771
27.940000000000598        0.08483063514718855
27.960000000000594        0.07745346235330594
27.980000000000597        0.07171582943988976
28.0000000000006          0.06730984178059038
28.020000000000607        0.0639843750983116
28.040000000000603        0.06155028990577599
28.060000000000606        0.059871456489252725
28.08000000000062         0.05885505897375408
28.10000000000061         0.05844420629194972
28.12000000000062         0.05861322491573625
28.14000000000062         0.0593653421894749
28.16000000000062         0.06073328774916574
28.180000000000618        0.06278138432548602
28.20000000000062         0.06561095422654926
28.22000000000062         0.0693681640441754
28.24000000000063         0.07425425841166092
28.260000000000627        0.08053495377411522
28.28000000000063         0.08853486632419444
28.30000000000063         0.09856351130114499
28.32000000000063         0.11060840339442118
28.340000000000625        0.12359957975550998
28.36000000000062         0.13519067494714648
28.380000000000614        0.1436428832516939
28.40000000000061         0.1482083316362937
28.42000000000062         0.1495852916458026
28.440000000000616        0.14832062895262643
28.46000000000063         0.14387500834638378
28.480000000000626        0.13555543751235927
28.500000000000632        0.12411142214487528
28.520000000000643        0.1112849083899428
28.540000000000646        0.09942304134113379
28.56000000000066         0.089593708224591
28.58000000000066         0.08180696763972484
28.60000000000066         0.07575176159284565
28.62000000000066         0.07110302773875922
28.640000000000665        0.06759559191298611
28.660000000000668        0.06502966227439184
28.680000000000668        0.0632616773850727
28.700000000000678        0.062193100109885636
28.72000000000067         0.061764256101912836
28.74000000000067         0.06194809938908238
28.760000000000673        0.06274826227972913
28.78000000000068         0.06419926252206375
28.80000000000068         0.06636924002420266
28.820000000000675        0.06936540371367032
28.84000000000068         0.07334237790667358
28.860000000000685        0.07851302533320519
28.88000000000069         0.08515837954059895
28.900000000000684        0.0936217510643858
28.920000000000684        0.10423049389848346
28.940000000000683        0.11697160144414152
28.960000000000683        0.13071524350733743
28.980000000000675        0.1430118359914715
29.00000000000067         0.15193768587674492
29.02000000000066         0.15675441111305197
29.040000000000667        0.15821321272134797
29.060000000000674        0.15687677524503027
29.08000000000067         0.15217487158362286
29.100000000000676        0.143375928257606
29.120000000000687        0.13127319243261992
29.140000000000693        0.1177103217396492
29.160000000000704        0.10516888841427081
29.180000000000714        0.09477745372381628
29.200000000000717        0.08654639587281361
29.220000000000713        0.08014688036335389
29.240000000000713        0.07523501492369673
29.26000000000072         0.0715298704721395
29.28000000000072         0.06882059672068931
29.30000000000072         0.06695525448396138
29.32000000000072         0.06583020798139044
29.340000000000735        0.06538199110009484
29.360000000000728        0.06558206625425202
29.380000000000724        0.06643437582957105
29.40000000000073         0.06797555918402982
29.42000000000074         0.07027785240094038
29.440000000000733        0.0734548592328786
29.46000000000074         0.0776703922108089
29.480000000000743        0.08314993523649336
29.50000000000075         0.09018954566989945
29.520000000000742        0.09915075016431393
29.54000000000074         0.1103787972380839
29.560000000000745        0.12386922857706296
29.580000000000744        0.13845339036795365
29.600000000000733        0.15148315244942354
29.620000000000726        0.16094333874044242
29.640000000000718        0.1660507808102981
29.660000000000725        0.16759926276062234
29.680000000000728        0.1661843183617893
29.700000000000728        0.16120269502638118
29.720000000000734        0.1518816150740939
29.740000000000745        0.13906220160641886
29.760000000000748        0.12469917712629017
29.78000000000076         0.11140237906643147
29.80000000000078         0.10041090244658783
29.82000000000077         0.09170241980304296
29.840000000000767        0.08493013147833475
29.86000000000077         0.07973188096450219
29.880000000000777        0.07581160790847342
29.900000000000777        0.0729459729795757
29.92000000000078         0.0709741231428388
29.94000000000078         0.06978637102971426
29.960000000000793        0.06931548595424177
29.980000000000786        0.06953118417046042
30.00000000000079         0.07043758638653963
30.02000000000078         0.07207343824346826
30.040000000000788        0.07451558720103893
30.06000000000079         0.07788348445714936
30.080000000000794        0.08235048467473935
30.100000000000797        0.08815448246083103
30.1200000000008          0.09560879582410757
30.140000000000796        0.10509493638605102
30.160000000000796        0.11697682478117466
30.180000000000792        0.1312520362174214
30.200000000000784        0.14669932070163907
30.220000000000784        0.16053548569807416
30.240000000000776        0.17060617792308555
30.260000000000776        0.17606716394506777
30.280000000000776        0.17773006374098146
30.300000000000782        0.17621611150402144
30.32000000000079         0.17091480314256466
30.340000000000792        0.16101798400735495
30.3600000000008          0.14737200795974553
30.38000000000081         0.13213448644326017
30.400000000000816        0.11809094072078649
30.42000000000082         0.10646111994989355
30.440000000000833        0.09724453939587036
30.46000000000082         0.09007513662733539
30.480000000000828        0.08457059585144772
30.500000000000835        0.0804180843852027
30.520000000000838        0.07738135298266136
30.540000000000838        0.07529009476318321
30.560000000000834        0.07402809881974942
30.58000000000085         0.07352409545023507
30.600000000000847        0.07374593623007163
30.620000000000836        0.0746977103482452
30.640000000000843        0.07642002375761364
30.660000000000842        0.0789932683263009
30.68000000000085         0.08254394262548788
30.700000000000845        0.0872543230753076
30.72000000000085         0.0933748529437242
30.740000000000858        0.10123511330363384
30.760000000000858        0.11123598591285332
30.780000000000854        0.12375993711601774
30.800000000000853        0.13880911130179246
30.82000000000085         0.1551214214145634
30.840000000000835        0.16979194787688767
30.860000000000838        0.18049161254240134
30.88000000000083         0.18636005847308992
30.90000000000083         0.18814955229021701
30.920000000000837        0.1865172479520485
30.94000000000084         0.18083334674262166
30.960000000000846        0.17029572728435266
30.98000000000086         0.15582387949695173
31.000000000000867        0.13973260896574227
31.02000000000087         0.12492717627368659
31.040000000000877        0.11266668860055046
31.06000000000089         0.10294568736687222
31.080000000000894        0.09537927227316766
31.10000000000088         0.08956547321508106
31.12000000000089         0.08517493478429096
31.14000000000089         0.08195814843444041
31.160000000000895        0.07973631046829732
31.180000000000895        0.07838573202268596
31.20000000000089         0.07783063651638243
31.2200000000009          0.07803637734857996
31.240000000000904        0.07900653432387246
31.260000000000897        0.08078311649042016
31.280000000000904        0.08344988660730579
31.300000000000903        0.08713899630598859
31.320000000000917        0.09204109378912226
31.34000000000091         0.09841824158114473
31.360000000000923        0.10661530214612841
31.38000000000091         0.11705170763541843
31.4000000000009          0.13012840435263331
31.420000000000897        0.14588247958484385
31.440000000000904        0.16293691100115423
31.46000000000089         0.17831938826798904
31.48000000000091         0.18964581620498064
31.500000000000902        0.19587262453518037
31.520000000000902        0.19778122743465504
31.5400000000009          0.19604522319452827
31.5600000000009          0.19001855458990335
31.580000000000894        0.17890283221095085
31.600000000000904        0.1636856885549909
31.620000000000925        0.14682569275160756
31.64000000000094         0.13133826632777248
31.660000000000938        0.11851735283713134
31.680000000000938        0.10835260714443128
31.700000000000944        0.10043444889738458
31.72000000000094         0.09434682341655645
31.74000000000094         0.08974283597243621
31.760000000000932        0.08636018589124105
31.780000000000953        0.08400927796894782
31.800000000000953        0.08256005588608717
31.820000000000952        0.08193185457270981
31.840000000000952        0.08208686862395673
31.86000000000096         0.08302708472538063
31.880000000000955        0.08479448137466043
31.900000000000954        0.08747446851089201
31.920000000000968        0.09120278069934724
31.940000000000968        0.09617600549770608
31.960000000000974        0.10266477947619378
31.98000000000098         0.11102895886853435
32.00000000000096         0.12170544213338035
32.02000000000096         0.13511457201279134
32.04000000000096         0.15126615175991
32.060000000000954        0.16881596118109954
32.08000000000094         0.18469663523529653
32.10000000000094         0.1964199715909854
32.12000000000095         0.20288940307325712
32.14000000000093         0.20487867696820922
32.16000000000093         0.20307155446906225
32.18000000000094         0.19681108743988115
32.20000000000094         0.1853055621856304
32.22000000000096         0.16959593909516948
32.24000000000096         0.15227576259964354
32.26000000000098         0.13636729839611694
32.28000000000097         0.12321626222956383
32.30000000000098         0.11280914281363165
32.32000000000098         0.10472211041886319
32.340000000000984        0.09851499615622093
32.36000000000099         0.09382794870073478
32.38000000000098         0.09038894171034054
32.40000000000098         0.08800132776306369
32.42000000000099         0.08653019814694346
32.440000000000985        0.08589180010712179
32.460000000000996        0.08604669728307393
32.480000000000985        0.08699652918449666
32.500000000001           0.08878388192416597
32.52000000000099         0.09149684813361343
32.540000000001           0.09527499975855303
32.560000000001           0.10032120569759423
32.580000000001014        0.10691578954780044
32.600000000001           0.1154295660075397
32.620000000001           0.12631640337124647
32.640000000000995        0.14001489611988166
32.660000000001           0.15654762673294334
32.68000000000099         0.17455754533165166
32.700000000000976        0.19090985601620516
32.720000000000965        0.2030143995933094
32.740000000000975        0.20972133266119644
32.76000000000096         0.2117922138286611
32.78000000000096         0.2099182932142917
32.80000000000098         0.2034162514509179
32.820000000000974        0.19152872293999523
32.84000000000098         0.17540535633206017
32.86000000000099         0.15763790204017908
32.880000000001           0.14136415466520746
32.900000000001           0.12794014688946304
32.920000000001004        0.11733937900829597
32.94000000000101         0.1091191927260258
32.96000000000101         0.1028227141572576
32.98000000000103         0.09807726140914595
33.00000000000101         0.09460158952188961
33.02000000000101         0.09219267547962277
33.04000000000102         0.09071127868321888
33.060000000001025        0.09007090308942198
33.080000000001036        0.09023041288582202
33.100000000001025        0.09119127001442616
33.12000000000102         0.09299716711046152
33.140000000001024        0.09573791295687607
33.16000000000103         0.0995569814217374
33.180000000001016        0.10466312073084195
33.200000000001026        0.11134539711992848
33.220000000001036        0.11998707077871792
33.240000000001025        0.13105862575365185
33.26000000000103         0.14501798464330268
33.28000000000102         0.16190242046062825
33.30000000000102         0.1803450349736371
33.32000000000101         0.1971481415155742
33.340000000001005        0.20964394824779775
33.360000000001           0.21656479061750677
33.380000000001           0.21871619624928884
33.40000000000099         0.2167765880353245
33.420000000001004        0.21005635871264483
33.44000000000102         0.19781484677639544
33.460000000001024        0.1812571373797007
33.48000000000103         0.1630742653258056
33.50000000000103         0.1464668849492156
33.52000000000103         0.13280061193654508
33.540000000001044        0.12203412839425892
33.56000000000105         0.11370527609406135
33.58000000000106         0.10734014049699184
33.600000000001046        0.10255380674474071
33.62000000000105         0.09905444845021151
33.64000000000105         0.09663381425131626
33.66000000000105         0.09514873854044888
33.680000000001066        0.09451031353300132
33.70000000000106         0.09467640838743929
33.72000000000107         0.09564808356788847
33.74000000000107         0.09746975432097098
33.76000000000106         0.10023312392944003
33.78000000000107         0.10408508806337931
33.800000000001056        0.10923991085933489
33.82000000000106         0.11599509552708259
33.84000000000107         0.12474626834889385
33.86000000000107         0.13598092774688197
33.88000000000106         0.15015717879968163
33.90000000000107         0.16735978441985477
33.92000000000105         0.18623874957288444
33.94000000000104         0.2035196232718883
33.960000000001024        0.21634054410409104
33.98000000000103         0.22349100607111483
34.00000000000102         0.22572245280776215
34.02000000000103         0.2237183202062478
34.04000000000104         0.21678413753196826
34.06000000000104         0.2041978559361324
34.080000000001064        0.18722149359546192
34.10000000000106         0.16864510613665032
34.12000000000108         0.1517293592989165
34.14000000000107         0.1378461041675814
34.160000000001084        0.12693505641536837
34.18000000000107         0.11851878041811473
34.20000000000108         0.11210109272648815
34.2200000000011          0.1072852142965617
34.24000000000109         0.10377257059095303
34.260000000001085        0.10134823571473207
34.280000000001095        0.09986527565042547
34.300000000001084        0.0992325512649681
34.32000000000109         0.0994068145074862
34.340000000001105        0.10038894145233253
34.360000000001094        0.10222406074549385
34.38000000000109         0.10500559487261231
34.40000000000111         0.10888350664486676
34.4200000000011          0.1140778506698416
34.4400000000011          0.1208920931118484
34.4600000000011          0.12973332547680966
34.48000000000109         0.1411036292836973
34.50000000000111         0.1555004988900414
34.52000000000109         0.17300658030792643
34.54000000000109         0.19227800448127472
34.56000000000108         0.20998515992441544
34.580000000001085        0.22316553101187672
34.60000000000108         0.23054683043218852
34.62000000000107         0.23285989380587613
34.640000000001066        0.23079219179144358
34.66000000000108         0.22364585004551615
34.68000000000107         0.2107206017544013
34.70000000000108         0.19333147331912526
34.72000000000111         0.17435782724841808
34.740000000001096        0.15716845373544933
34.76000000000111         0.14310524380858708
34.78000000000112         0.13208091828625315
34.80000000000111         0.1235932907718239
34.82000000000111         0.1171366507597551
34.840000000001126        0.11230214074838621