% Model:              Untitled.mph
% Version:            COMSOL 5.6.0.280
% Date:               Oct 15 2021, 11:18
% Dimension:          1
% Nodes:              994
% Expressions:        1
% Description:        线图
% cln1x                   Height
49.24999999999999         0.20688805300366372
49.260000000000076        0.2054479948371893
49.280000000000086        0.2034112462273847
49.300000000000104        0.20249606730860406
49.32000000000011         0.2027543611936838
49.34000000000012         0.20430855144416937
49.36000000000011         0.2073685661944746
49.38000000000013         0.21225767441571863
49.400000000000134        0.21944560808466684
49.420000000000144        0.2295718889532207
49.440000000000154        0.24338181968179148
49.460000000000164        0.2613438200371401
49.48000000000015         0.2823491960702277
49.50000000000016         0.3028345748740235
49.520000000000174        0.3188677702578351
49.540000000000205        0.3281775037599361
49.560000000000194        0.3308680590386806
49.58000000000019         0.3274525676808077
49.60000000000019         0.31732081955447966
49.62000000000021         0.3002455355965637
49.6400000000002          0.27841575949113306
49.66000000000021         0.2558064754524242
49.680000000000234        0.236037421891893
49.70000000000021         0.2202226555916756
49.72000000000022         0.2079705309883587
49.74000000000024         0.1985557870767141
49.760000000000254        0.1913385329324345
49.78000000000025         0.1858330034050582
49.80000000000025         0.18168963973922986
49.82000000000027         0.17866421396647608
49.840000000000266        0.1765923934509178
49.86000000000028         0.17537238717456372
49.88000000000028         0.1749545308203552
49.90000000000029         0.17533646971809075
49.92000000000031         0.17656323705605814
49.940000000000296        0.178732263614958
49.96000000000031         0.18200400822118948
49.98000000000032         0.18661946012285058
50.00000000000033         0.19292506850418933
50.02000000000034         0.20140768869980907
50.04000000000033         0.21270919933721236
50.060000000000365        0.22755511123116826
50.08000000000035         0.24632278756818698
50.10000000000036         0.26785162237153864
50.12000000000035         0.28852544311196576
50.140000000000356        0.3045199424739787
50.160000000000366        0.3137482166193213
50.18000000000036         0.31648231641990116
50.20000000000038         0.31334152391515463
50.22000000000038         0.3037029015496279
50.240000000000386        0.2872453018996345
50.260000000000396        0.26601865175784695
50.280000000000406        0.2439372036254037
50.300000000000416        0.22455106505709338
50.320000000000405        0.20905036204116823
50.34000000000043         0.1970734214429903
50.36000000000043         0.1879050423715206
50.38000000000044         0.18090810534515192
50.400000000000446        0.17559957356151473
50.42000000000046         0.17163243071739023
50.44000000000047         0.1687647088304307
50.46000000000046         0.16683425610201302
50.48000000000047         0.1657414553818191
50.500000000000476        0.16543876498156154
50.520000000000486        0.16592585218984482
50.54000000000049         0.1672496588750479
50.56000000000051         0.16950904151356636
50.58000000000051         0.17286658494029578
50.60000000000052         0.177564419910198
50.62000000000053         0.18395044368662528
50.640000000000526        0.19250858553459216
50.66000000000054         0.2038749511630446
50.68000000000056         0.2187579793324533
50.70000000000054         0.23750130853881796
50.72000000000055         0.2589004706666356
50.740000000000556        0.2793307410930758
50.76000000000056         0.29504105797189245
50.78000000000056         0.3040468756271737
50.800000000000566        0.3066982595004567
50.82000000000058         0.3036453577025174
50.84000000000057         0.2942219780486031
50.860000000000575        0.2780671482469822
50.88000000000058         0.2571627249163456
50.9000000000006          0.23524979614309233
50.92000000000062         0.21595253704192194
50.94000000000062         0.20048677997656708
50.96000000000063         0.18852147969484978
50.980000000000636        0.17935735245766116
51.00000000000064         0.1723641481394379
51.02000000000065         0.1670614336551039
51.04000000000065         0.16310305078520002
51.06000000000068         0.16024726392088706
51.080000000000666        0.158331979171435
51.10000000000067         0.1572576537013381
51.12000000000067         0.1569767157865169
51.14000000000069         0.1574890440731907
51.16000000000069         0.1588417052937421
51.1800000000007          0.16113399705517845
51.20000000000071         0.1645279223808337
51.22000000000071         0.1692653365335518
51.24000000000071         0.1756925949026832
51.26000000000073         0.1842895842193603
51.28000000000072         0.19568308474783738
51.30000000000074         0.21056232153113658
51.32000000000075         0.22923758100344116
51.34000000000075         0.2504666424329657
51.36000000000075         0.27062841704079366
51.380000000000734        0.28607603429953743
51.40000000000074         0.2948486248740307
51.42000000000074         0.2974262352530851
51.440000000000765        0.29446690274835763
51.46000000000077         0.28527874732615804
51.48000000000077         0.26943652702095594
51.50000000000078         0.2488292639329116
51.52000000000079         0.22712055057073613
51.540000000000816        0.20793081716814196
51.56000000000083         0.19251117692212744
51.58000000000084         0.18056180533102323
51.60000000000083         0.17140138963728568
51.62000000000085         0.16440836559608513
51.64000000000084         0.15910612148994366
51.66000000000085         0.1551504408397653
51.68000000000085         0.1522993276373038
51.70000000000087         0.15039149010523872
51.72000000000089         0.1493274493437349
51.74000000000088         0.14905980227988674
51.760000000000886        0.14958838345979655
51.7800000000009          0.15096028448631582
51.800000000000885        0.1532747214409342
51.82000000000092         0.15669332951136944
51.840000000000906        0.16145689908430205
51.860000000000916        0.16790918907003313
51.880000000000926        0.17652455272449577
51.90000000000094         0.18791872477897115
51.92000000000093         0.20274148741739387
51.94000000000094         0.2212941784437157
51.960000000000946        0.24232805930448578
51.98000000000094         0.2622344330020122
52.00000000000094         0.27735660056870015
52.020000000000934        0.2859222448895277
52.04000000000095         0.2884315438616345
52.06000000000094         0.2855535190439477
52.08000000000096         0.276586225235626
52.10000000000098         0.2610552568111834
52.12000000000098         0.2407679492395571
52.140000000000995        0.21929755582080904
52.160000000001           0.20024521391770952
52.18000000000104         0.18489185460618301
52.20000000000103         0.17296906680761362
52.22000000000105         0.16381995247339384
52.24000000000106         0.15683006405698272
52.26000000000104         0.15152915229299807
52.28000000000106         0.1475754366669779
52.30000000000107         0.1447289885459637
52.32000000000107         0.14282844542851467
52.34000000000109         0.14177454414971125
52.36000000000108         0.1415199740579861
52.380000000001104        0.14206459143082517
52.40000000000111         0.14345542700741495
52.42000000000112         0.14579147442492146
52.44000000000114         0.1492337945921108
52.46000000000112         0.1540218385879536
52.48000000000113         0.16049694005902845
52.50000000000115         0.1691243639914023
52.52000000000115         0.18050559497071503
52.54000000000114         0.19528347409214247
52.560000000001146        0.21370910953319594
52.58000000000116         0.2345131299326702
52.600000000001124        0.254110729552678
52.62000000000113         0.2689395078421448
52.64000000000112         0.27730642488029306
52.66000000000113         0.2797544748959799
52.68000000000113         0.276958861958327
52.700000000001125        0.26821113227291543
52.72000000000114         0.2529930316119309
52.74000000000116         0.23302304661946951
52.760000000001185        0.21178611316050885
52.7800000000012          0.1928979937398126
52.80000000000121         0.17763466830605548
52.82000000000125         0.16575376330579308
52.84000000000124         0.15661942186745728
52.86000000000126         0.14963555795533004
52.880000000001246        0.14433802508118485
52.90000000000125         0.14038801524359804
52.92000000000126         0.1375470324439256
52.94000000000126         0.13565438192011053
52.96000000000128         0.13461107427861915
52.98000000000128         0.134369876784477
53.00000000000127         0.13493059821734232
53.02000000000129         0.13634032806304952
53.0400000000013          0.1386972652853953
53.06000000000132         0.14216165529948413
53.08000000000131         0.1469709387417125
53.10000000000133         0.15346171673961795
53.120000000001326        0.16209349643913631
53.14000000000133         0.173453125759196
53.16000000000133         0.18816004614977286
53.180000000001336        0.20643351962110826
53.20000000000134         0.22698166070037024
53.22000000000133         0.24625025092209582
53.24000000000134         0.26077376472146624
53.26000000000132         0.26893618328530633
53.28000000000132         0.2713191173471534
53.300000000001326        0.26860312674068115
53.32000000000134         0.26009483497444874
53.34000000000136         0.24520790620937272
53.360000000001385        0.22555760889780688
53.38000000000139         0.20460265860694335
53.400000000001405        0.18589503736863353
53.420000000001416        0.17073220376502343
53.440000000001426        0.15890259130987278
53.460000000001436        0.1497932022373901
53.48000000000145         0.1428216714022401
53.500000000001464        0.13753131659496393
53.52000000000147         0.13358718795059055
53.54000000000147         0.13075272105490957
53.56000000000147         0.12886806583608051
53.58000000000149         0.12783506083086604
53.60000000000149         0.12760651277500534
53.62000000000149         0.12818233099755938
53.6400000000015          0.1296091623870674
53.66000000000151         0.13198491328902587
53.680000000001506        0.13546838934513156
53.700000000001516        0.14029457427434533
53.720000000001534        0.14679546645744834
53.74000000000154         0.15542209546350153
53.76000000000154         0.16674637769520764
53.78000000000154         0.18136393074553572
53.80000000000154         0.199463639559388
53.82000000000152         0.219735258096608
53.840000000001524        0.23862645277657107
53.860000000001506        0.2528489693893501
53.880000000001495        0.2608275019880782
53.90000000000151         0.2631479804088033
53.920000000001515        0.26051115779200695
53.94000000000152         0.2522247514424216
53.96000000000155         0.23766806402755422
53.98000000000156         0.21838289976195877
54.000000000001606        0.19772937048405864
54.020000000001595        0.17922249050397143
54.040000000001605        0.16417677402258743
54.060000000001615        0.15241031813970096
54.080000000001625        0.14333365699087547
54.10000000000166         0.1363792678968046
54.120000000001646        0.13109831545923112
54.14000000000165         0.1271619208849247
54.16000000000166         0.12433510926885676
54.18000000000168         0.122459414103204
54.20000000000168         0.12143695394537384
54.22000000000169         0.12122091843023973
54.24000000000169         0.12181101743128994
54.260000000001696        0.12325344559287407
54.28000000000169         0.1256453472534825
54.30000000000171         0.12914412652422383
54.3200000000017          0.13398201915570646
54.340000000001744        0.14048578555459898
54.36000000000174         0.14909709611390404
54.380000000001736        0.16037934909528911
54.40000000000174         0.17490238784252554
54.42000000000174         0.19281995753179498
54.44000000000174         0.2127759119068785
54.4600000000017          0.2313032912106019
54.48000000000171         0.24521075815053278
54.50000000000172         0.2529829970239965
54.52000000000173         0.2552394952944404
54.54000000000171         0.25268260755463745
54.560000000001736        0.24461986854529397
54.58000000000174         0.23039916086640844
54.600000000001764        0.21149086345463958
54.620000000001816        0.19115543779068778
54.640000000001805        0.17286712565984422
54.66000000000182         0.15796132215990735
54.680000000001826        0.14626393506634744
54.700000000001836        0.13722625215559947
54.72000000000186         0.13029390203895047
54.740000000001864        0.12502686527039675
54.76000000000186         0.12109969792656611
54.780000000001856        0.11828110884064473
54.800000000001866        0.11641420362713492
54.82000000000188         0.11540189026973555
54.84000000000189         0.11519764645923011
54.860000000001904        0.11580107191276122
54.8800000000019          0.11725781184571059
54.9000000000019          0.11966381947055035
54.920000000001934        0.12317429384727786
54.940000000001916        0.12801696916242422
54.960000000001955        0.1345144194177622
54.98000000000194         0.14309866246530895
55.00000000000195         0.15431197015472803
55.020000000001936        0.1687049449212786
55.040000000001946        0.1864030299174802
55.060000000001935        0.20604005393887834
55.080000000001924        0.22419537069565681
55.10000000000192         0.23777893001925368
55.12000000000192         0.24534248523843794
55.140000000001905        0.24753553365518421
55.16000000000192         0.24506022461944008
55.18000000000193         0.23722504442625636
55.20000000000194         0.22331386956193014
55.22000000000198         0.20484082342670465
55.24000000000201         0.18486752367016102
55.260000000002016        0.1668102331842616
55.280000000002026        0.15203835457167444
55.30000000000206         0.14043262272867174
55.320000000002054        0.13144800350784816
55.34000000000207         0.12454639177725776
55.36000000000208         0.11929792902203562
55.380000000002084        0.11538322050113436
55.400000000002066        0.11257449715666913
55.42000000000209         0.11071689287980266
55.4400000000021          0.10971443713429074
55.46000000000211         0.10952106036209774
55.48000000000213         0.11013608573997198
55.500000000002125        0.11160467582106055
55.52000000000214         0.11402137783288743
55.54000000000214         0.1175390284804627
55.56000000000215         0.12238218702219988
55.580000000002165        0.12886505853891217
55.60000000000216         0.13740914243027985
55.62000000000217         0.14853964991034208
55.64000000000217         0.1627838617238181
55.660000000002164        0.18024269584836936
55.68000000000215         0.1995442203215276
55.70000000000214         0.21731761567109692
55.72000000000212         0.23057298228315629
55.740000000002105        0.23792693424962702
55.7600000000021          0.2400563297877375
55.780000000002104        0.23766100126732126
55.80000000000213         0.23003238301538603
55.82000000000214         0.21648994350011952
55.84000000000217         0.19841759241477586
55.86000000000221         0.1787998951354012
55.88000000000223         0.16100363969610965
55.90000000000223         0.14640351611487842
55.920000000002254        0.13490423619559075
55.94000000000226         0.12598377526020396
55.960000000002275        0.11912079476437702
55.98000000000227         0.11389633921230044
56.000000000002295        0.10999771995644975
56.02000000000229         0.10720141426996477
56.04000000000231         0.10535411089436766
56.06000000000232         0.10436138397561609
56.080000000002315        0.10417755418094703
56.10000000000234         0.10480199321517693
56.12000000000233         0.10627904118949752
56.14000000000233         0.10870184084313123
56.16000000000235         0.112220435827195
56.180000000002345        0.11705468842634477
56.200000000002376        0.12351128530284408
56.22000000000237         0.13200002714985923
56.24000000000237         0.14302881760813807
56.26000000000235         0.15710206586967398
56.28000000000235         0.17429822910026624
56.300000000002356        0.19323691903373036
56.32000000000234         0.2106578404787826
56.34000000000232         0.22356423813074872
56.36000000000231         0.2306855903502363
56.38000000000231         0.2327499010905216
56.40000000000232         0.23043580054121457
56.420000000002354        0.223036376245788
56.44000000000235         0.2098471126361663
56.460000000002374        0.1921898536919275
56.4800000000024          0.17294905176659053
56.50000000000243         0.15543746033730343
56.520000000002454        0.1410310226241525
56.54000000000246         0.12965647551786236
56.560000000002475        0.12081433130616807
56.5800000000025          0.11400113703472103
56.60000000000249         0.10880787146106312
56.62000000000249         0.10493003835253324
56.64000000000251         0.10214853682985656
56.66000000000251         0.10031346053783285
56.68000000000252         0.09933139453438716
56.700000000002525        0.09915719730306545
56.72000000000254         0.09978996754536332
56.74000000000253         0.10127291720966818
56.76000000000256         0.10369714021350443
56.78000000000255         0.10720953315071398
56.800000000002555        0.11202506503503105
56.82000000000258         0.11844261448004481
56.84000000000256         0.12685825603014686
56.86000000000257         0.13775987578377452
56.880000000002575        0.15162803576316966
56.90000000000257         0.16853015524487988
56.92000000000255         0.1871262859573171
56.94000000000255         0.20413957175505812
56.96000000000253         0.21670481703072728
56.98000000000252         0.2236129497138418
57.000000000002515        0.2256128560521552
57.02000000000251         0.22337964935964322
57.04000000000255         0.21621045064571925
57.06000000000255         0.20337933846596787
57.080000000002585        0.1861481245652811
57.100000000002616        0.16730124430179125
57.12000000000265         0.15007447497704052
57.14000000000267         0.1358946738314073
57.16000000000268         0.12466898348851733
57.180000000002686        0.11592177398868536
57.20000000000273         0.10916828318848121
57.2200000000027          0.10401423466842416
57.24000000000271         0.10016268493249669
57.26000000000271         0.09739958598227133
57.28000000000271         0.09557811994862532
57.30000000000274         0.09460660512970938
57.32000000000274         0.09444062341164346
57.34000000000276         0.09507909744941553
57.36000000000275         0.09656412586041814
57.38000000000277         0.09898457316660926
57.400000000002784        0.10248423729434088
57.42000000000277         0.10727092464447281
57.44000000000279         0.11363486508214764
57.4600000000028          0.12196033623376487
57.4800000000028          0.13271863093663747
57.5000000000028          0.14636937358526264
57.52000000000279         0.16296294053285137
57.54000000000277         0.18116581863915918
57.560000000002745        0.19776050068019463
57.58000000000272         0.20998089455468844
57.60000000000271         0.21667606525843966
57.62000000000272         0.21861214187785713
57.6400000000027          0.21645973660936021
57.66000000000275         0.20954250517291578
57.680000000002764        0.1970894272017427
57.70000000000278         0.180252609155375
57.72000000000283         0.16179243435932567
57.74000000000285         0.1449229027637439
57.76000000000287         0.13097967733151555
57.78000000000289         0.11991679195347478
57.80000000000289         0.1112789500836769
57.82000000000292         0.10459831296152035
57.84000000000291         0.0994929248016161
57.86000000000291         0.09567425613441302
57.88000000000292         0.09293376231354247
57.90000000000294         0.09112803934058665
57.92000000000294         0.09016729357407306
57.940000000002954        0.09000787532696959
57.96000000000297         0.09064845329336717
57.98000000000297         0.0921299058646451
58.00000000000297         0.09453875125467985
58.02000000000298         0.09801414372994459
58.04000000000298         0.10275888242978112
58.06000000000301         0.10905365464493155
58.080000000003004        0.11726982680323023
58.10000000000301         0.1278616526616356
58.120000000003           0.14126932036528464
58.14000000000299         0.1575286251429832
58.16000000000298         0.1753158280277381
58.180000000002956        0.19147576591963497
58.20000000000292         0.20334199417320642
58.22000000000292         0.2098191648456509
58.240000000002915        0.21169122243933383
58.26000000000293         0.20962132828391303
58.28000000000294         0.20293732737928674
58.30000000000295         0.1908553216106328
58.320000000003           0.17447000729560116
58.340000000003016        0.15644236444942644
58.36000000000305         0.13992450942775392
58.380000000003086        0.12624241131373787
58.40000000000309         0.11536459433154822
58.42000000000311         0.10685496824877122
58.44000000000313         0.10026226110366261
58.46000000000312         0.09521694755526536
58.48000000000312         0.09143877094105837
58.50000000000313         0.08872617650558631
58.52000000000315         0.08693882684151623
58.540000000003154        0.08598907020278088
58.56000000000316         0.08583405003918368
58.580000000003174        0.08647212825675858
58.60000000000316         0.08794272031314482
58.62000000000318         0.09032952461116267
58.640000000003184        0.09376733247350864
58.660000000003194        0.09845253512567508
58.68000000000321         0.10465657152129958
58.7000000000032          0.11273794428717891
58.72000000000321         0.12313417762744211
58.74000000000321         0.13626665209326394
58.760000000003195        0.15218711532701334
58.780000000003184        0.1695021431623815
58.80000000000315         0.18516370576464908
58.82000000000311         0.19668119870551268
58.84000000000314         0.2029588349560622
58.860000000003126        0.20476570148305864
58.88000000000313         0.20277727025339548
58.90000000000316         0.19632901359762345
58.92000000000317         0.1846256972075401
58.9400000000032          0.16870724945518956
58.96000000000325         0.15113263285210154
58.98000000000325         0.13498729091166015
59.00000000000328         0.12158415094198582
59.0200000000033          0.11090414903172406
59.04000000000332         0.10252883469831939
59.06000000000334         0.09602288517369799
59.08000000000333         0.09102944921376864
59.10000000000334         0.08727663714789832
59.120000000003344        0.08456696398111059
59.140000000003354        0.08276366436434478
59.16000000000335         0.08178005985788861
59.18000000000336         0.08157259803737865
59.20000000000338         0.0821373571428693
59.22000000000338         0.0835097853317251
59.240000000003384        0.08576769403921587
59.26000000000339         0.08903771846977297
59.2800000000034          0.09350538219001575
59.30000000000338         0.09942785599074304
59.320000000003425        0.10714883673912093
59.34000000000343         0.11708709746306842
59.36000000000342         0.12964648946340032
59.380000000003406        0.1448340541980694
59.40000000000338         0.1613446574121899
59.42000000000337         0.1762246292106269
59.44000000000334         0.18713362086565716
59.46000000000334         0.19304737029684474
59.48000000000333         0.19474296171162497
59.500000000003325        0.19287855768509451
59.52000000000335         0.1868062956107114
59.540000000003374        0.17572504052191268
59.560000000003406        0.16060238738911004
59.580000000003444        0.14387315831412967
59.600000000003476        0.12844601166993005
59.6200000000035          0.11563002999829547
59.64000000000353         0.10542167819943285
59.66000000000352         0.09742009737568581
59.680000000003524        0.09120776045006301
59.70000000000354         0.08644331274111323
59.72000000000355         0.08286865897246284
59.74000000000355         0.08029694673701376
59.76000000000356         0.07859940263289092
59.78000000000356         0.07769516444904892
59.800000000003564        0.0775446653681257
59.82000000000358         0.07814635959546047
59.840000000003585        0.07953657709523625
59.8600000000036          0.08179202898966137
59.880000000003584        0.08503760146517624
59.9000000000036          0.08945390830047424
59.92000000000362         0.09529116241041366
59.940000000003614        0.10288038271256048
59.96000000000364         0.1126262198993394
59.98000000000365         0.1249157749021589
60.00000000000362         0.13974483838831586
60.0200000000036          0.15582266455254218
60.04000000000358         0.1702628707204846
60.06000000000355         0.18082200482819297
60.080000000003544        0.18652478051929333
60.100000000003526        0.18815624908303383
60.12000000000353         0.18636457280929958
60.140000000003546        0.18049164453211453
60.16000000000358         0.16975030253636353
60.1800000000036          0.1551146299588372
60.20000000000365         0.1388259529857242
60.22000000000368         0.12376693475891691
60.2400000000037          0.11122889604024021
60.260000000003714        0.1012191961436272
60.280000000003724        0.0933536705671895
60.30000000000373         0.0872293823978954
60.32000000000375         0.0825157781902069
60.34000000000376         0.0789620527175631
60.36000000000376         0.07638580668560505
60.38000000000376         0.074660492244349
60.40000000000378         0.07370573673919371
60.42000000000378         0.07348064583494875
60.440000000003806        0.07398118373217603
60.460000000003795        0.07523944080992778
60.48000000000381         0.07732655774256841
60.50000000000382         0.08035861703829007
60.520000000003805        0.08450585380839483
60.54000000000382         0.09000466196265777
60.56000000000382         0.0971686020495336
60.58000000000384         0.10638179379951776
60.60000000000383         0.11801185353440402
60.620000000003834        0.1320500292629479
60.6400000000038          0.14724836657002363
60.660000000003784        0.16084509537208158
60.680000000003744        0.1707705326595619
60.70000000000374         0.1760676407923703
60.72000000000373         0.17758042522981274
60.74000000000374         0.17592027506366006
60.76000000000376         0.17044865007695492
60.78000000000378         0.16036942650358108
60.80000000000382         0.14658278179126094
60.820000000003866        0.13117305042716312
60.8400000000039          0.1169006295527779
60.860000000003915        0.10501594691176719
60.880000000003925        0.0955309245734304
60.900000000003956        0.08808001533489279
60.920000000003974        0.08227977575679357
60.94000000000397         0.07781665247789547
60.96000000000397         0.07445113796273113
60.980000000003976        0.0720109326136964
61.000000000003986        0.07037598393782943
61.02000000000399         0.06946991862647126
61.04000000000399         0.06925399400662635
61.06000000000403         0.06972406407476005
61.08000000000401         0.07091036099265602
61.10000000000402         0.07288004089499274
61.12000000000403         0.07574270732566998
61.140000000004044        0.0796591737263581
61.16000000000406         0.0848529358447119
61.18000000000405         0.0916207581739453
61.20000000000407         0.10032651837841557
61.220000000004056        0.11130118609395032
61.24000000000403         0.12456190933418645
61.260000000004           0.13893674757092167
61.28000000000399         0.15177947990327456
61.300000000003955        0.1610728653297846
61.320000000003944        0.16603234447872664
61.340000000003926        0.16744537086284836
61.360000000003936        0.16589805539387456
61.380000000003946        0.16077853591766733
61.40000000000398         0.1513083129760543
61.42000000000402         0.1383257467502869
61.44000000000406         0.12377988395960299
61.460000000004094        0.1102948785263978
61.48000000000412         0.09906635995942388
61.50000000000414         0.09010623215380863
61.52000000000417         0.08307313419868818
61.540000000004156        0.07759887152885055
61.56000000000417         0.07338701002648212
61.58000000000418         0.07021263100254153
61.60000000000419         0.06791218006049032
61.62000000000419         0.06637217584467701
61.64000000000419         0.06552043836687006
61.6600000000042          0.06532034444081553
61.68000000000423         0.065767936518238
61.700000000004216        0.06689170758606035
61.72000000000422         0.06875505261809696
61.74000000000423         0.07146152545987072
61.76000000000425         0.07516361568282262
61.78000000000425         0.08007076152397478
61.800000000004246        0.08646267791095455
61.820000000004256        0.09468091152874861
61.84000000000427         0.10505255227005582
61.86000000000425         0.11757568083412026
61.88000000000421         0.1311492100761061
61.900000000004205        0.14327372257055432
61.92000000000415         0.15204644083834765
61.940000000004154        0.15672761085021178
61.960000000004136        0.15806237595516942
61.98000000000414         0.15660468701554522
62.000000000004164        0.15177652221305718
62.02000000000419         0.14284125797436747
62.04000000000423         0.13059056869950944
62.06000000000425         0.11683714891080606
62.0800000000043          0.10411431569352797
62.100000000004336        0.0935254613044418
62.12000000000435         0.08507502853717834
62.14000000000436         0.07843759790760732
62.160000000004366        0.07327211086142085
62.18000000000437         0.06929872140366844
62.200000000004394        0.0663051123347801
62.22000000000439         0.06413691074169688
62.24000000000439         0.06268702801110615