% Model:              Untitled.mph
% Version:            COMSOL 5.6.0.280
% Date:               Sep 14 2021, 16:39
% Dimension:          1
% Nodes:              1062
% Expressions:        1
% Description:        线图
% cln1x                   Height
49.45000000000001         0.20758827481279754
49.46000000000005         0.20677375731361886
49.480000000000054        0.20574627468090598
49.50000000000005         0.20552145468793048
49.52000000000006         0.20611556579540774
49.54000000000005         0.20756373037930556
49.56000000000005         0.2099228881093249
49.58000000000006         0.21327373308344863
49.60000000000005         0.2177175022200131
49.62000000000006         0.22339483011385777
49.640000000000065        0.2304902370810816
49.66000000000006         0.23924122358656352
49.68000000000007         0.24995200949529606
49.700000000000074        0.2630147028501895
49.72000000000006         0.2789363765600272
49.74000000000007         0.29837763003610723
49.760000000000076        0.3221840922787843
49.78000000000007         0.3514555159514135
49.800000000000075        0.3875712322246153
49.82000000000008         0.43214519172594035
49.84000000000009         0.4866598690736126
49.860000000000085        0.5511577679538392
49.880000000000074        0.6211750407942552
49.90000000000008         0.6851731033079597
49.92000000000008         0.730792260160999
49.940000000000076        0.7564451170151787
49.96000000000008         0.7681577878755677
49.98000000000009         0.7713847828614964
50.000000000000085        0.7679945313779446
50.0200000000001          0.7560844338317206
50.04000000000009         0.7301629949846873
50.06000000000009         0.6841728348241183
50.080000000000105        0.6196806156993891
50.10000000000011         0.5490387546419646
50.120000000000104        0.4838015753399113
50.14000000000011         0.42846080720815394
50.160000000000124        0.38299879662764846
50.18000000000011         0.3459499743534483
50.20000000000013         0.3157103466234973
50.22000000000012         0.29090545204934676
50.240000000000116        0.27043965659175834
50.260000000000126        0.25346011023813925
50.28000000000012         0.2393055606432622
50.300000000000146        0.22746871322926734
50.32000000000013         0.21755063831598
50.34000000000013         0.20924177754100548
50.36000000000014         0.20229976833648614
50.38000000000013         0.1965344989372719
50.400000000000134        0.1917970087506282
50.420000000000144        0.18797120931357028
50.44000000000014         0.18496778226419902
50.460000000000136        0.1827196623089986
50.48000000000015         0.18117878828890027
50.50000000000015         0.18031386724946305
50.52000000000016         0.180108981486719
50.54000000000015         0.1805628945683697
50.560000000000166        0.18168895924082792
50.58000000000016         0.18351585133976445
50.600000000000165        0.18608872299508275
50.62000000000017         0.18947144065794214
50.64000000000016         0.19374967863781656
50.660000000000174        0.1990352576801319
50.68000000000018         0.20547206397328321
50.70000000000016         0.21324404651941237
50.72000000000018         0.2225859858613455
50.74000000000018         0.23379800118627522
50.7600000000002          0.24726502983726925
50.78000000000019         0.26348285005884076
50.80000000000018         0.28309228390272523
50.82000000000019         0.3069225027491606
50.840000000000195        0.33604110322417513
50.86000000000019         0.37177790467082283
50.880000000000194        0.4156974016497827
50.90000000000018         0.4692260199768252
50.92000000000019         0.5323732042118804
50.940000000000204        0.6007292129397167
50.960000000000186        0.6629854538618926
50.98000000000018         0.7071572068790491
51.00000000000018         0.7318950216768505
51.02000000000018         0.7431655661173919
51.04000000000018         0.7462765657072525
51.0600000000002          0.7430481329204051
51.0800000000002          0.731630673015204
51.10000000000019         0.706753733585739
51.1200000000002          0.662417489400624
51.1400000000002          0.5999789831085778
51.16000000000021         0.5314177767981615
51.180000000000206        0.46804047095589435
51.200000000000216        0.4142606281879701
51.22000000000021         0.37007449314921953
51.24000000000022         0.33406067960766495
51.26000000000022         0.3046619065924214
51.28000000000022         0.2805440523908562
51.300000000000225        0.26064396480507834
51.32000000000023         0.24413426359915372
51.34000000000023         0.23037499679773807
51.36000000000023         0.218870762496185
51.38000000000023         0.20923599064313275
51.400000000000254        0.20117205739936275
51.420000000000236        0.19444290844231807
51.440000000000225        0.1888642082683024
51.46000000000024         0.18429154040648318
51.48000000000024         0.1806123954734977
51.50000000000025         0.17774025124578774
51.520000000000245        0.1756102410744145
51.54000000000026         0.17417602640168803
51.56000000000025         0.17340761829616824
51.580000000000254        0.1732899976693297
51.60000000000024         0.17382244512606995
51.62000000000025         0.17501851891778628
51.64000000000026         0.17690667686452102
51.66000000000026         0.17953148847718925
51.68000000000027         0.18295609443766186
51.70000000000026         0.18726478631245067
51.720000000000276        0.1925675561246081
51.74000000000026         0.19900583439971084
51.760000000000254        0.20676033308121947
51.78000000000027         0.21606162911563745
51.80000000000028         0.2272043964421551
51.82000000000028         0.24056652329726044
51.84000000000028         0.2566346142108363
51.8600000000003          0.2760375507838815
51.880000000000294        0.2995889945234866
51.90000000000029         0.32833577079736825
51.920000000000286        0.363584908950625
51.94000000000029         0.4068689196297212
51.9600000000003          0.45958565022032577
51.98000000000029         0.5217318334134298
52.00000000000029         0.5889392287695243
52.0200000000003          0.6500435374606292
52.040000000000305        0.693281843141579
52.0600000000003          0.7174356796357657
52.080000000000304        0.7284237920026173
52.10000000000031         0.7314565442831904
52.12000000000032         0.7283146585287327
52.14000000000031         0.7171929204483767
52.160000000000316        0.6928264162920857
52.180000000000334        0.6493846699143049
52.200000000000315        0.588331966262518
52.220000000000326        0.5210023255241906
52.24000000000032         0.45872584066066496
52.26000000000033         0.40586844882046813
52.28000000000034         0.3624345859412623
52.30000000000034         0.32702926795707493
52.32000000000035         0.29812307864445625
52.34000000000034         0.2744059241414609
52.36000000000034         0.2548339796068921
52.380000000000344        0.2385950073718873
52.40000000000033         0.22506081479031298
52.42000000000035         0.21374512179198976
52.44000000000033         0.20427015243930924
52.46000000000037         0.1963411917469164
52.480000000000345        0.18972719006435382
52.50000000000036         0.18424794656535415
52.52000000000036         0.1797612523743968
52.54000000000037         0.17615670940318165
52.56000000000037         0.17334943505038605
52.58000000000037         0.1712758114925484
52.60000000000039         0.16989042372266774
52.620000000000374        0.16916394844547405
52.640000000000384        0.16908179861414452
52.66000000000038         0.16964346233902586
52.68000000000039         0.17086248712659496
52.70000000000037         0.17276709877670124
52.72000000000039         0.1754015004069185
52.740000000000386        0.1788278000869876
52.760000000000396        0.1831295639321747
52.7800000000004          0.18841529388323142
52.80000000000039         0.19482459926839465
52.8200000000004          0.2025358338652732
52.84000000000041         0.2117765159018733
52.860000000000404        0.22283736564076528
52.88000000000041         0.2360911516667206
52.9000000000004          0.2520178706214848
52.920000000000435        0.27123785365432457
52.94000000000041         0.2945537025569159
52.96000000000042         0.32299805138773346
52.980000000000416        0.3578694699845932
53.00000000000041         0.4006877625050015
53.020000000000415        0.45275093498712377
53.04000000000042         0.5141464039696847
53.06000000000041         0.5805021864471653
53.080000000000396        0.6407600254143663
53.10000000000041         0.6833169606817492
53.1200000000004          0.7070465560350057
53.14000000000041         0.7178305648218173
53.160000000000394        0.7208077552912981
53.180000000000405        0.7177299693902947
53.20000000000042         0.7068241527211231
53.22000000000042         0.682899914543746
53.240000000000414        0.6401627123258392
53.26000000000044         0.579982261546701
53.28000000000044         0.5136607407878003
53.30000000000045         0.4520656158376554
53.32000000000044         0.3998759643855554
53.34000000000045         0.35698794867384703
53.36000000000045         0.3220252298234802
53.38000000000047         0.2934781552675319
53.40000000000047         0.2700537296924791
53.420000000000464        0.2507219156975162
53.44000000000046         0.23468129857089629
53.460000000000456        0.2213121037324161
53.48000000000047         0.21013458953558878
53.50000000000047         0.20077606925651023
53.52000000000046         0.1929458028678345
53.540000000000475        0.1864161798510486
53.560000000000485        0.1810084803803749
53.58000000000048         0.1765833901516492
53.60000000000048         0.17303171274357573
53.620000000000466        0.17026976697393886
53.64000000000048         0.16823485214938824
53.66000000000048         0.16688221113963575
53.68000000000049         0.16618295461515883
53.70000000000051         0.16612276028562203
53.7200000000005          0.16670124617186988
53.7400000000005          0.16793193967944714
53.760000000000495        0.16984288007977108
53.7800000000005          0.17247790566611965
53.80000000000051         0.1758987132223255
53.82000000000051         0.18018784827733356
53.84000000000052         0.1854525403918544
53.86000000000052         0.19183152503746773
53.88000000000052         0.19950114101036756
53.90000000000052         0.2086866074595648
53.92000000000052         0.21967567579887695
53.9400000000005          0.2328372687087101
53.96000000000052         0.24864639493666174
53.98000000000052         0.26771694282365777
54.00000000000051         0.29084320834383415
54.020000000000536        0.3190471929106149
54.04000000000053         0.35361418732649824
54.06000000000053         0.396048485630046
54.080000000000545        0.44771864409861556
54.10000000000053         0.5085649256081245
54.12000000000054         0.5741559544880225
54.140000000000526        0.6337695691336847
54.16000000000055         0.6758104205514601
54.18000000000053         0.6992198396726671
54.20000000000054         0.7098501549658454
54.22000000000054         0.7127853156207421
54.24000000000054         0.7097546742463852
54.260000000000545        0.699008429195598
54.28000000000054         0.675412061432985
54.30000000000055         0.6332011538570707
54.32000000000055         0.5736816740540006
54.34000000000057         0.508036963103642
54.36000000000057         0.4471351590782644
54.38000000000058         0.3953715512139116
54.400000000000574        0.35290132125295753
54.420000000000584        0.31827761494777934
54.44000000000058         0.29000584237473365
54.4600000000006          0.2668060252131367
54.4800000000006          0.24765860855583724
54.50000000000057         0.2317703982826798
54.52000000000059         0.21852800954116222
54.540000000000596        0.20745666170950144
54.56000000000059         0.19818752861827407
54.5800000000006          0.1904328850428613
54.6000000000006          0.18396748309165778
54.62000000000062         0.1786146772720514
54.64000000000061         0.17423610624747246
54.66000000000062         0.17072393083662532
54.68000000000061         0.16799558693545535
54.70000000000062         0.16598892177602248
54.720000000000624        0.16465971375173807
54.74000000000063         0.1639794545636184
54.760000000000645        0.16393403903822304
54.78000000000062         0.16452313345101532
54.80000000000062         0.16576019316881824
54.82000000000064         0.1676730847813851
54.84000000000063         0.17030536120217543
54.860000000000625        0.17371828417618712
54.88000000000063         0.17799378558940482
54.90000000000066         0.18323859439228876
54.92000000000065         0.18958986336716535
54.94000000000065         0.1972220815002819
54.96000000000065         0.20635976068838213
54.98000000000065         0.2172878687760118
55.00000000000064         0.23037236063683156
55.020000000000664        0.24608439825884568
55.04000000000065         0.2650328769404227
55.06000000000066         0.2880056369507794
55.08000000000068         0.3160164408068499
55.10000000000067         0.3503403160027926
55.12000000000067         0.3924696046006391
55.14000000000066         0.4437614697598521
55.16000000000065         0.504152618461883
55.180000000000646        0.569226701634821
55.20000000000064         0.6283435823126491
55.22000000000064         0.6699827972444717
55.240000000000634        0.6931439470897589
55.260000000000645        0.7036556933454545
55.28000000000065         0.706559275515898
55.300000000000644        0.7035668996181539
55.32000000000065         0.6929474887521074
55.34000000000066         0.6696103660450775
55.36000000000066         0.627812959444373
55.38000000000067         0.5688085982162064
55.40000000000069         0.5036884583858374
55.42000000000069         0.4432571751670369
55.440000000000694        0.3919248985383081
55.46000000000069         0.34975245328387383
55.4800000000007          0.31538283453138116
55.500000000000696        0.2873250399600841
55.520000000000685        0.26429990810707216
55.540000000000724        0.24529593132691488
55.560000000000706        0.2295262392186718
55.580000000000716        0.216382369843833
55.60000000000071         0.20539336914767284
55.62000000000071         0.19619339127093563
55.64000000000073         0.1884970398301657
55.660000000000714        0.18208089256645124
55.6800000000007          0.1767697381903095
55.70000000000071         0.17242634211807276
55.720000000000724        0.16894384548874747
55.74000000000073         0.16624013874214438
55.76000000000074         0.16425369384092933
55.78000000000073         0.1629407699672536
55.80000000000073         0.1622730690822044
55.82000000000073         0.16223666877468268
55.84000000000074         0.16283133101220373
55.86000000000075         0.16407048379171416
55.880000000000734        0.165981819034021
55.90000000000075         0.1686085904631021
55.92000000000074         0.172011653282469
55.940000000000744        0.17627242343265034
55.96000000000074         0.1814969517462468
55.98000000000076         0.18782150205341544
56.00000000000077         0.19542010155064915
56.02000000000075         0.20451371066247367
56.04000000000076         0.21538745597173942
56.060000000000755        0.2284041550919195
56.08000000000076         0.2440318240055459
56.10000000000076         0.26287528697108553
56.12000000000077         0.2857171192600973
56.14000000000079         0.31356432752988256
56.16000000000077         0.347683532292386
56.180000000000774        0.38955731456051906
56.20000000000078         0.44053360199792335
56.22000000000077         0.5005465047747294
56.24000000000077         0.5651975907750951
56.26000000000076         0.6237277143007306
56.28000000000076         0.665118532453152
56.30000000000077         0.6881702136504922
56.32000000000077         0.6985856039358311
56.34000000000077         0.701463485538066
56.36000000000078         0.6985018996231052
56.38000000000078         0.6879847528500832
56.40000000000078         0.6648571143833745
56.42000000000079         0.6233956061755788
56.440000000000786        0.5648126727318148
56.46000000000082         0.5001238863470873
56.48000000000081         0.440080272858413
56.50000000000081         0.3890741350017412
56.52000000000082         0.3471686243009954
56.540000000000816        0.3130149598460775
56.56000000000083         0.2851304913123095
56.58000000000081         0.26225218496039204
56.600000000000826        0.24336587094742104
56.62000000000083         0.22769321858342945
56.64000000000082         0.21462981194089742
56.66000000000083         0.20370784264285957
56.68000000000083         0.19456391373576845
56.700000000000834        0.18691454085810907
56.72000000000083         0.18053779710501555
56.74000000000083         0.17525964406695355
56.760000000000844        0.17094376704684686
56.780000000000854        0.16748402548936672
56.80000000000084         0.16479886489175555
56.82000000000084         0.16282721673981448
56.840000000000856        0.16152552828489486
56.86000000000085         0.16086582604374197
56.88000000000085         0.16083426615903795
56.90000000000086         0.16143064760212766
56.92000000000087         0.16266836546816407
56.94000000000087         0.16457501286051787
56.96000000000087         0.16719363201119752
56.980000000000864        0.1705847183429073
57.00000000000087         0.17482917635403575
57.02000000000088         0.1800324049798931
57.040000000000866        0.1863298688382353
57.06000000000088         0.19389457812788566
57.080000000000865        0.20294718388253888
57.10000000000089         0.21376956969071775
57.12000000000088         0.22672108314013092
57.140000000000896        0.24227024515978685
57.160000000000885        0.2610168532818083
57.18000000000089         0.2837388427738896
57.200000000000905        0.31143727089536893
57.220000000000894        0.3453713149462246
57.24000000000089         0.3870148993943614
57.260000000000886        0.43770782111870815
57.28000000000088         0.4973822805866357
57.30000000000088         0.561657077310189
57.320000000000874        0.6198230522247855
57.34000000000087         0.6609286557423136
57.360000000000866        0.683798981073489
57.38000000000086         0.6941452231459867
57.40000000000088         0.6969951476066464
57.4200000000009          0.6940605172910636
57.440000000000886        0.683632156759684
57.460000000000896        0.6606865484265084
57.48000000000091         0.6195180269279832
57.5000000000009          0.5613044987222194
57.52000000000092         0.4969951095237777
57.54000000000093         0.43729290732396175
57.56000000000094         0.38657399373958345
57.58000000000093         0.3449034657877426
57.60000000000094         0.3109404387026423
57.620000000000935        0.2832106935719482
57.64000000000095         0.2604550852412515
57.660000000000935        0.24167542415566728
57.680000000000945        0.2260878349095382
57.70000000000096         0.21309482585572728
57.72000000000095         0.2022313489597075
57.74000000000095         0.19313615670226175
57.76000000000096         0.18552744619764613
57.78000000000093         0.17918461215509093
57.80000000000096         0.17393465011073828
57.82000000000095         0.169642051070324
57.840000000000984        0.16620129803290656
57.860000000000966        0.16353131687911526
57.880000000000976        0.16157140155081556
57.90000000000097         0.16027828181716403
57.92000000000096         0.1596241007800222
57.94000000000097         0.15959515332092647
57.96000000000098         0.16019125075619822
57.98000000000098         0.16142572482991094
58.00000000000099         0.1633260363537098
58.020000000001           0.1659350248088566
58.04000000000098         0.16931290915803704
58.06000000000099         0.17354018428958778
58.080000000000986        0.17872166257095304
58.100000000000996        0.18499202686785216
58.12000000000099         0.19252331139022338
58.14000000000099         0.2015349583656536
58.160000000001006        0.21230731238432984
58.18000000000101         0.22519976078598392
58.20000000000099         0.24067495971234243
58.220000000001015        0.259327295955901
58.24000000000102         0.2819366475710552
58.26000000000102         0.30949598638718756
58.28000000000101         0.3432578223808372
58.30000000000103         0.3846883569500569
58.320000000001           0.43512015538911797
58.34000000000102         0.49448355315621206
58.360000000000994        0.558411782850519
58.38000000000099         0.6162390678450821
58.40000000000099         0.6570753135217712
58.420000000001004        0.6797790068637785
58.440000000001           0.6900456406612939
58.460000000000996        0.6928738388467014
58.48000000000101         0.6899628208301171
58.500000000001           0.6796150877900999
58.52000000000102         0.6568357882837818
58.54000000000102         0.615936246521454
58.56000000000103         0.558063571967363
58.58000000000104         0.49410543907481796
58.60000000000105         0.4347197606240232
58.62000000000106         0.3842671951365445
58.64000000000106         0.34281454968460995
58.660000000001055        0.30902827079432194
58.680000000001044        0.28144195716455367
58.70000000000106         0.2588032060065188
58.72000000000107         0.24011653026712648
58.74000000000106         0.22460843225067242
58.76000000000109         0.2116825776237551
58.780000000001074        0.2008732078276892
58.80000000000108         0.19182305259984592
58.82000000000106         0.18425185570356614
58.84000000000108         0.17794021930484843
58.86000000000108         0.17271609084739128
58.880000000001075        0.16844471593221502
58.90000000000108         0.16502116851154366
58.92000000000108         0.1623648243459462
58.94000000000109         0.16041530725271108
58.96000000000108         0.15912958184826373
58.9800000000011          0.15847994567031082
59.000000000001094        0.15845276519854506
59.02000000000111         0.15904786359050213
59.04000000000109         0.16027855710042027
59.060000000001104        0.16217210764230622
59.08000000000111         0.16477116430072236
59.1000000000011          0.16813564637136091
59.12000000000111         0.17234566162591353
59.14000000000111         0.17750552610848921
59.160000000001105        0.18374923835632218
59.18000000000111         0.1912479112133351
59.20000000000111         0.20021978877892252
59.220000000001136        0.2109437258713572
59.24000000000112         0.22377722661564445
59.26000000000113         0.23918052698807543
59.28000000000113         0.2577482686528798
59.300000000001134        0.28024619336490453
59.32000000000114         0.30767224626110945
59.34000000000113         0.34126919966498726
59.360000000001136        0.3824958631716665
59.38000000000113         0.4326778882809451
59.400000000001135        0.49174408675812725
59.42000000000113         0.5553426133825297
59.44000000000112         0.6128508431296652
59.46000000000111         0.6534368072369297
59.480000000001105        0.6759873656091613
59.500000000001116        0.6861813935951866
59.52000000000111         0.688990187679488
59.5400000000011          0.6860957527499721
59.56000000000113         0.6758366732079673
59.58000000000112         0.6532068875688449
59.600000000001124        0.6125603743334385
59.62000000000112         0.5550091405762979
59.64000000000113         0.4913828775467887
59.66000000000115         0.43229654155091235
59.68000000000114         0.3820959790337507
59.70000000000115         0.34084955559635155
59.72000000000116         0.3072306259946119
59.74000000000116         0.2797801679982621
59.76000000000115         0.257252133124096
59.78000000000116         0.23865614964834392
59.80000000000118         0.22322273056497016
59.820000000001166        0.2103572479417157
59.84000000000117         0.19959960728695858
59.86000000000118         0.1905931211169495
59.88000000000118         0.18305747691386123
59.90000000000117         0.17677539374486143
59.92000000000118         0.17157570949749043
59.94000000000118         0.1673243609640612
59.96000000000116         0.16391696386462207
59.98000000000119         0.16127332207098607
60.00000000000121         0.15933339114798187
60.02000000000119         0.15805437097882086
60.04000000000121         0.15740870323994663
60.0600000000012          0.15738282282270846
60.08000000000121         0.15797655558588367
60.100000000001224        0.1592031118712422
60.120000000001205        0.1610897485321814
60.14000000000124         0.1636787771213674
60.16000000000123         0.16702986299102168
60.18000000000123         0.17122271772584208
60.20000000000124         0.1763611489928383
60.22000000000124         0.18257852094432855
60.24000000000124         0.1900451226426652
60.26000000000125         0.1989780984073183
60.28000000000127         0.209654856433385
60.30000000000127         0.2224310510878899
60.32000000000126         0.23776458320490715
60.340000000001275        0.2562470975801476
60.36000000000127         0.2786437878138072
60.380000000001274        0.3059384362390817
60.40000000000128         0.3393754897747007
60.420000000001295        0.3804054352029408
60.44000000000129         0.4303465935752012
60.46000000000128         0.48912647277561244
60.48000000000127         0.5524082323842566
60.50000000000126         0.6096117760435649
60.52000000000125         0.6499608258115077
60.540000000001235        0.6723675053569532
60.56000000000125         0.6824935742144843
60.58000000000124         0.6852841643281634
60.600000000001245        0.6824107465142955
60.62000000000125         0.6722219785656627
60.64000000000127         0.6498284501079744
60.66000000000127         0.6095012311214257
60.68000000000127         0.5520850719406657
60.70000000000129         0.48877779697715684
60.7200000000013          0.4299800983270077
60.74000000000132         0.38002262538976656
60.760000000001284        0.33897506142677836
60.780000000001316        0.30551744506538486
60.80000000000132         0.2781979116242391
60.82000000000131         0.2557765689843424
60.840000000001304        0.23726799017856506
60.860000000001314        0.22190655621695007
60.88000000000132         0.20910063892841166
60.90000000000131         0.19839246846685937
60.92000000000134         0.18942649305353026
60.94000000000133         0.18192581548071954
60.96000000000134         0.17567224753433555
60.980000000001326        0.1704961547414111
61.00000000000133         0.16626414438010922
61.02000000000134         0.1628723493669664
61.04000000000132         0.16024096407149466
61.06000000000135         0.1583102374523651
61.08000000000132         0.15703759277194193
61.10000000000135         0.15639563346125002
61.120000000001326        0.15637088204305472
61.140000000001365        0.15696317187399325
61.16000000000136         0.15818564813615493
61.18000000000137         0.16006536943530464
61.200000000001374        0.16264454453986402
61.22000000000136         0.1659826542854886
61.24000000000137         0.17015879234031475
61.26000000000138         0.1752763670614413
61.28000000000137         0.18146810318601747
61.30000000000138         0.1889034883576223
61.320000000001386        0.19779865784456926
61.340000000001396        0.20842968543141138
61.360000000001385        0.22115047707724417
61.380000000001395        0.2364166535544712
61.40000000000139         0.25481696606231097
61.420000000001394        0.2771129072262292
61.440000000001405        0.3042835377238575
61.460000000001415        0.3375584059673236
61.480000000001404        0.37837347469244237
61.50000000000141         0.42811783573652346
61.520000000001424        0.4866227337267587
61.54000000000141         0.5496006101746999
61.5600000000014          0.6065124177136347
61.5800000000014          0.646635238080217
61.6000000000014          0.6689049189084921
61.620000000001404        0.6789665161769002
61.6400000000014          0.6817401655165506
61.66000000000143         0.6788874714359446
61.68000000000141         0.6687670396334603
61.70000000000141         0.6465143505887013
61.72000000000141         0.6064171818357534
61.74000000000141         0.5493046465447091
61.76000000000143         0.4862926059597353
61.780000000001436        0.42777032429634854
61.800000000001454        0.3780449288606829
61.82000000000145         0.3371874105030025
61.84000000000145         0.3038841232588169
61.86000000000146         0.27668996502424986
61.88000000000146         0.25437088536519026
61.90000000000147         0.2359461557259356
61.92000000000147         0.22065383571559444
61.94000000000149         0.20790515279996244
61.96000000000147         0.19724455179258016
61.98000000000148         0.1883182023547812
62.000000000001485        0.18085009261516877
62.02000000000148         0.17462414311778185
62.04000000000149         0.169471105376006
62.06000000000147         0.16525775167970463
62.08000000000151         0.16188102501753326
62.100000000001494        0.15926150134128483
62.12000000000151         0.15733971134255617
62.14000000000151         0.15607327176351507
62.1600000000015          0.15543490907309418
62.18000000000151         0.15541122120872197
62.20000000000152         0.1560020710773346
62.22000000000152         0.1572205677645626
62.24000000000152         0.15909365187914823
62.26000000000154         0.1616633336284382
62.28000000000153         0.16498866769117665
62.30000000000153         0.16914860625545886
62.320000000001535        0.1742462831832073
62.340000000001545        0.18041330119827453
62.36000000000154         0.1878185754490457
62.380000000001544        0.19667724513761717
62.40000000000157         0.2072641316317008
62.42000000000155         0.21993150768655156
62.44000000000156         0.23513285828454233
62.460000000001564        0.2534541337398203
62.48000000000157         0.27565325157715376
62.500000000001585        0.3027047410484533
62.52000000000159         0.3358325217033917