% Model:              Untitled.mph
% Version:            COMSOL 5.6.0.280
% Date:               Sep 14 2021, 16:37
% Dimension:          1
% Nodes:              961
% Expressions:        1
% Description:        线图
% cln1x                   Height
49.40000000000001         0.23155616877494686
49.420000000000016        0.22931709534328798
49.44000000000002         0.22824573183822536
49.46000000000002         0.22835454700859165
49.48000000000002         0.22968661337781252
49.50000000000003         0.23231853606106675
49.52000000000006         0.23636536905234393
49.54000000000004         0.24198797865261185
49.560000000000045        0.24940345468737207
49.580000000000055        0.258899511013626
49.60000000000006         0.2708541781305153
49.62000000000006         0.2857624822856735
49.64000000000006         0.3042717761504029
49.660000000000046        0.32722674720555966
49.680000000000064        0.355720875455197
49.70000000000008         0.39113589997027776
49.72000000000007         0.43509714765502344
49.740000000000066        0.48901626389577935
49.76000000000007         0.5530464787585901
49.78000000000007         0.6227035767685891
49.80000000000007         0.6864521389167638
49.82000000000006         0.7319148010810776
49.84000000000009         0.7574777490435262
49.86000000000007         0.7691436595415028
49.880000000000074        0.772348308990987
49.900000000000084        0.7689546245754562
49.92000000000007         0.7570237059829232
49.940000000000076        0.731007078274226
49.96000000000008         0.684942241065731
49.98000000000007         0.6206405710633047
50.00000000000008         0.5500423172730716
50.020000000000074        0.4848903083509187
50.04000000000006         0.42967506060416827
50.06000000000009         0.38437793251914587
50.08000000000007         0.34753312923952184
50.100000000000065        0.31753790494594625
50.120000000000076        0.2930204803466316
50.14000000000008         0.27288916491094584
50.16000000000009         0.25629619376095747
50.180000000000085        0.2425880135608328
50.20000000000011         0.23126120349585724
50.22000000000008         0.221927558960593
50.24000000000009         0.2142875738263957
50.26000000000009         0.20811066925454885
50.2800000000001          0.20322040207814207
50.300000000000104        0.19948465235467763
50.32000000000011         0.1968064997761562
50.34000000000012         0.19511986820073285
50.36000000000013         0.194385631872983
50.38000000000012         0.1945895414937636
50.40000000000012         0.19574153686121062
50.42000000000013         0.19787631712939338
50.44000000000013         0.20105524291903118
50.46000000000014         0.20536968759153684
50.48000000000015         0.210946195514517
50.50000000000014         0.2179538917013593
50.52000000000015         0.22661478801617221
50.54000000000016         0.2372178976970665
50.56000000000016         0.2501364052994936
50.58000000000016         0.2658605553164823
50.600000000000165        0.2850219957538607
50.62000000000018         0.3084429666396313
50.64000000000017         0.33718422252835784
50.660000000000174        0.3725822494231234
50.68000000000018         0.4162039603654485
50.70000000000017         0.46948154498463773
50.72000000000017         0.5323838378544127
50.740000000000165        0.6003808574402836
50.760000000000154        0.6622705099640649
50.78000000000014         0.7063797342713688
50.80000000000016         0.731124057027624
50.82000000000015         0.7423702037664186
50.840000000000146        0.7454644105261848
50.86000000000015         0.742249054610844
50.880000000000145        0.730873390497273
50.90000000000015         0.7059836719626207
50.92000000000016         0.6617102597943927
50.94000000000016         0.5996368355231317
50.96000000000016         0.5314314665203955
50.980000000000175        0.4682939743674176
51.00000000000016         0.41475832315918604
51.02000000000017         0.37086157364463324
51.04000000000016         0.33517650624829737
51.060000000000166        0.30613972526871697
51.08000000000016         0.2824170462162607
51.10000000000017         0.2629518697110989
51.12000000000018         0.24691647845146592
51.140000000000164        0.23368175844327047
51.16000000000017         0.22276061518973492
51.180000000000184        0.2137775620505099
51.20000000000019         0.20644302783206966
51.22000000000017         0.20053421177095762
51.24000000000019         0.1958809563059852
51.26000000000021         0.19235541570177292
51.28000000000019         0.18986462846476537
51.300000000000196        0.18834532581007285
51.3200000000002          0.1877604971133401
51.34000000000021         0.18809740324987498
51.36000000000022         0.18936689748746638
51.3800000000002          0.19160413019285003
51.40000000000022         0.19487003213241583
51.42000000000022         0.19925519965232058
51.44000000000022         0.20488468017464956
51.46000000000022         0.2119253390571274
51.48000000000023         0.22059599626783577
51.50000000000023         0.23118131059704225
51.520000000000216        0.2440506396763041
51.540000000000234        0.2596833569135431
51.560000000000244        0.2787022274432064
51.58000000000025         0.3019155954399934
51.60000000000025         0.3303651131019754
51.620000000000246        0.3653607414536322
51.640000000000256        0.4084341557044721
51.660000000000245        0.46107050159651514
51.680000000000256        0.5231287159863296
51.70000000000026         0.5901502119506628
51.72000000000027         0.6510585598116607
51.74000000000025         0.6943702050823628
51.76000000000026         0.7186131910799699
51.78000000000027         0.7296168102141263
51.80000000000026         0.7326443963534156
51.82000000000027         0.7294980832908035
51.840000000000266        0.7183937205199177
51.86000000000026         0.6941200074076096
51.88000000000025         0.6507670286127825
51.90000000000027         0.5895737480082426
51.92000000000025         0.5224327281755274
51.940000000000246        0.4602508049837783
51.96000000000025         0.4075169402101102
51.98000000000024         0.3642750241018736
52.00000000000025         0.3291205461045651
52.02000000000025         0.30051412311193443
52.04000000000025         0.27714228083886816
52.06000000000025         0.257962330224036
52.080000000000275        0.2421658381688031
52.10000000000026         0.2291301862288596
52.12000000000027         0.21837610313786177
52.14000000000026         0.209534209998098
52.16000000000027         0.20231968975887082
52.18000000000028         0.19651343491330936
52.200000000000266        0.19194833103223102
52.22000000000029         0.18849828778576905
52.24000000000028         0.18607227652324254
52.26000000000028         0.18460823119408523
52.280000000000285        0.18406996201073902
52.30000000000029         0.1844452066652492
52.320000000000285        0.1857449757230157
52.34000000000029         0.18800414386808378
52.36000000000031         0.19128332538392173
52.380000000000294        0.19567219210811737
52.400000000000304        0.20129452059368083
52.42000000000031         0.20831541043171645
52.440000000000296        0.21695131149649358
52.4600000000003          0.22748375368722878
52.480000000000295        0.24027997878625126
52.50000000000031         0.2558108372173378
52.520000000000316        0.2746935478364523
52.540000000000326        0.29772745465986356
52.560000000000315        0.32594262872477037
52.580000000000325        0.36063449988018664
52.60000000000033         0.40331766477540953
52.620000000000324        0.45537501964792826
52.64000000000033         0.5168005273071752
52.66000000000034         0.5832530278222081
52.68000000000035         0.643646080801002
52.700000000000344        0.6863277200862081
52.72000000000034         0.7101381231641679
52.740000000000336        0.7209677865469871
52.760000000000325        0.7239497929873037
52.78000000000033         0.7208546909639327
52.80000000000034         0.7099237268476581
52.82000000000034         0.6860059651438889
52.84000000000032         0.6432241957601191
52.86000000000034         0.5827450578151826
52.88000000000034         0.5162157827630584
52.900000000000325        0.45471381833120333
52.92000000000034         0.40257544724559874
52.940000000000346        0.3598055691853327
52.960000000000335        0.3250217059389124
52.980000000000345        0.29671005614846335
53.00000000000035         0.27357595015344066
53.02000000000034         0.2545872344554481
53.04000000000035         0.23895112684127343
53.06000000000035         0.22604851984052232
53.08000000000036         0.21540547450259953
53.10000000000035         0.2066567429904859
53.12000000000036         0.199520712776212
53.14000000000037         0.19378076322012797
53.16000000000036         0.18927152341715767
53.180000000000376        0.1858688298252712
53.20000000000037         0.18348248750782792
53.220000000000375        0.1820512108774383
53.240000000000386        0.18153931293096653
53.26000000000037         0.1819348106110695
53.280000000000385        0.18324878957539723
53.30000000000039         0.18551585681108448
53.320000000000405        0.1887964147423771
53.340000000000394        0.19317940956777507
53.3600000000004          0.1987876627830288
53.38000000000041         0.2057849608820022
53.400000000000404        0.2143860050561225
53.4200000000004          0.2248700329528882
53.44000000000041         0.23759930071113425
53.460000000000434        0.25304394670610225
53.48000000000041         0.27181484321223487
53.50000000000042         0.29470532779760095
53.52000000000042         0.32273880495108587
53.540000000000425        0.35720467821742374
53.560000000000414        0.39957876735037384
53.580000000000425        0.4512599492474734
53.600000000000435        0.5122288674727681
53.62000000000042         0.5781650729050424
53.640000000000434        0.6380483748782801
53.66000000000041         0.6803233946345172
53.680000000000405        0.7038824978325907
53.70000000000041         0.7145856663412169
53.720000000000404        0.7175422836999207
53.7400000000004          0.7144931126372788
53.76000000000041         0.7036785924807354
53.780000000000406        0.6799400609366469
53.80000000000041         0.6375043024197508
53.82000000000042         0.5777204636505857
53.84000000000042         0.5117320794740986
53.86000000000042         0.4507092064951634
53.880000000000415        0.39897290987881356
53.90000000000041         0.3565315195953004
53.92000000000041         0.32201378231834105
53.94000000000042         0.29391779416971153
53.96000000000044         0.2709591753137821
53.980000000000445        0.25211675896800445
54.00000000000041         0.23659815087719302
54.02000000000043         0.22379285340465882
54.04000000000043         0.21323085920168702
54.060000000000436        0.2045499250995549
54.08000000000044         0.19747075620847218
54.10000000000045         0.19177852592726652
54.120000000000445        0.18730906798593266
54.14000000000045         0.1839397172731985
54.16000000000045         0.1815808236840294
54.180000000000454        0.18017170386927275
54.20000000000046         0.17967704162004144
54.22000000000046         0.18008501436207935
54.24000000000047         0.1814066972090588
54.260000000000474        0.18367666983189687
54.28000000000048         0.18695485444663723
54.30000000000046         0.1913297733554594
54.320000000000476        0.19692352575653743
54.34000000000048         0.2038989068147791
54.360000000000475        0.21246929722758667
54.38000000000048         0.22291082341326424
54.40000000000049         0.23558564608374402
54.420000000000506        0.25095996905825235
54.44000000000048         0.26964076753852323
54.46000000000049         0.2924163119388313
54.480000000000494        0.3203035256060867
54.5000000000005          0.3545837391286034
54.52000000000051         0.39675877810855537
54.54000000000051         0.4481969053607965
54.56000000000053         0.5088411343405134
54.58000000000051         0.5742597771683694
54.600000000000506        0.6335794583018938
54.62000000000051         0.67561361404221
54.64000000000051         0.6990598997900714
54.66000000000052         0.7096748987273012
54.68000000000052         0.7126057816769616
54.70000000000052         0.7095865238133283
54.72000000000052         0.6988719593054951
54.74000000000053         0.6753378193269962
54.76000000000051         0.6332282380493067
54.78000000000051         0.573851139113734
54.800000000000495        0.5083899926958803
54.82000000000051         0.4477097828235664
54.840000000000515        0.3962359969388316
54.86000000000052         0.35402294087512676
54.88000000000053         0.31970157284826317
54.90000000000052         0.29177005372317566
54.92000000000053         0.2689472993459031
54.940000000000516        0.25021934242482846
54.96000000000053         0.23479210453703636
54.98000000000054         0.22206232691039568
55.000000000000526        0.21156301910346711
55.02000000000052         0.20293427479860743
55.04000000000053         0.19589861006870968
55.06000000000055         0.19024260001025345
55.08000000000054         0.18580334033973897
55.10000000000054         0.18245855703405903
55.12000000000055         0.18011948422059576
55.140000000000576        0.17872587792000702
55.16000000000055         0.1782427272110067
55.180000000000554        0.17865837503698323
55.200000000000564        0.1799839628498853
55.22000000000056         0.18225380126566765
55.24000000000057         0.1855275368814668
55.26000000000057         0.18989326325541328
55.28000000000058         0.19547248470318673
55.30000000000059         0.2024271811927973
55.320000000000576        0.21096964504143575
55.3400000000006          0.22137595122209655
55.36000000000059         0.23400422882024682
55.38000000000059         0.2493191968556568
55.400000000000595        0.2679245173408302
55.4200000000006          0.2906037411401474
55.4400000000006          0.318366682425164
55.46000000000061         0.35248348322761375
55.48000000000062         0.3944744410834807
55.50000000000061         0.4456726452961979
55.520000000000614        0.5060279243260951
55.54000000000062         0.571121917718376
55.56000000000061         0.6301225126240977
55.58000000000061         0.6719020613755573
55.600000000000605        0.6951906295760437
55.62000000000063         0.70573690090043
55.640000000000605        0.7086416867066981
55.66000000000062         0.7056403313779355
55.68000000000062         0.6950189236661208
55.70000000000063         0.6717333687348904
55.7200000000006          0.629963787047239
55.74000000000063         0.5707474766862642
55.76000000000062         0.5056134038567398
55.780000000000605        0.4452321507773685
55.80000000000061         0.3940092479841733
55.82000000000061         0.35200095787909275
55.840000000000636        0.31784526772845484
55.86000000000063         0.2900477940946182
55.880000000000614        0.2673338812996651
55.90000000000061         0.24869206212639394
55.92000000000063         0.23333835673060596
55.94000000000063         0.22066911907230427
55.96000000000063         0.2102197652580685
55.98000000000064         0.20163229255746973
56.00000000000064         0.19463070262237528
56.02000000000064         0.18900299840168996
56.04000000000064         0.18458650622623196
56.06000000000065         0.18126002528579102
56.08000000000065         0.17893527302549334
56.10000000000065         0.17755234589793809
56.12000000000068         0.177076451277749
56.14000000000067         0.17749604712068573
56.16000000000066         0.17882222888028515
56.18000000000066         0.1810893065228174
56.20000000000066         0.1843566299231576
56.220000000000674        0.18871186382637614
56.24000000000068         0.19427593097804216
56.260000000000694        0.20121007786608294
56.28000000000068         0.20972563858109153
56.3000000000007          0.22009880570816204
56.32000000000068         0.23268392835404164
56.340000000000686        0.24794459662211732
56.360000000000696        0.26648179471528916
56.38000000000069         0.2890756129878954
56.400000000000716        0.3167314198120982
56.4200000000007          0.3507137981466638
56.44000000000071         0.3925013892760195
56.46000000000072         0.44344269958442273
56.48000000000071         0.5035202719287505
56.50000000000071         0.5684530580640637
56.52000000000071         0.6273459104028594
56.54000000000071         0.6688287725570534
56.56000000000071         0.6918976793257156
56.58000000000073         0.702373091341242
56.60000000000071         0.7052607939059709
56.62000000000071         0.7022791168313102
56.64000000000071         0.6917232978239837
56.66000000000071         0.6685724282321454
56.68000000000071         0.6270213981083832
56.7000000000007          0.5680830290699023
56.72000000000071         0.503123365283203
56.740000000000705        0.44302723863100874
56.76000000000073         0.39206866538593765
56.780000000000726        0.35026206225214107
56.800000000000715        0.31625792755909354
56.820000000000725        0.2885774576074656
56.84000000000072         0.2659528912590538
56.86000000000074         0.2473864061554848
56.88000000000074         0.23209421174236794
56.90000000000075         0.2194753629367599
56.92000000000075         0.2090673645392202
56.94000000000074         0.2005138267739234
56.96000000000074         0.19353999641140762
56.98000000000074         0.18793455611790108
57.000000000000746        0.1835362173670463
57.020000000000756        0.18022392781040372
57.04000000000078         0.17790982085885648
57.060000000000755        0.17653428123844037
57.08000000000078         0.17606269363569121
57.10000000000076         0.17648359339823302
57.120000000000765        0.17780798991028815
57.14000000000077         0.18007019083412337
57.16000000000077         0.183329324102968
57.180000000000796        0.18767272047205347
57.200000000000784        0.19322079093272201
57.22000000000079         0.20013407639143632
57.24000000000078         0.20862302559087276
57.26000000000079         0.21896134063063663
57.28000000000079         0.23150408152763297
57.300000000000786        0.24671203442588183
57.320000000000825        0.26518392512449795
57.340000000000806        0.2876973492070524
57.36000000000082         0.31525552448863037
57.380000000000805        0.3491226597139931
57.4000000000008          0.39074564681945356
57.42000000000081         0.4414953193418005
57.440000000000815        0.5013436734325607
57.46000000000081         0.5660200879947903
57.4800000000008          0.6246614844461013
57.500000000000824        0.6659444262815346
57.52000000000079         0.6888902144464164
57.540000000000816        0.6993009325923223
57.5600000000008          0.7021798984164589
57.5800000000008          0.6992244538398048
57.6000000000008          0.6887197567211828
57.62000000000081         0.665614167416649
57.640000000000796        0.6241902508316849
57.66000000000081         0.5656786853202164
57.680000000000824        0.5009759983657378
57.700000000000806        0.44110911651941226
57.720000000000816        0.39034285306232885
57.74000000000082         0.3486933018720542
57.76000000000082         0.3148162546526837
57.78000000000083         0.2872385338146041
57.80000000000083         0.26470056872765224
57.820000000000846        0.24620115498229936
57.84000000000082         0.23096352950346985
57.86000000000084         0.21838932167582317
57.880000000000834        0.20801790988111996
57.900000000000844        0.1994943175070987
57.92000000000085         0.19254487754020974
57.94000000000084         0.18695883312859599
57.96000000000086         0.1825761829365046
57.98000000000085         0.17927594695073057
58.00000000000087         0.17697061492735158
58.02000000000085         0.175600816102162
58.04000000000087         0.1751320804584984
58.06000000000087         0.1755529968424631
58.080000000000865        0.17687461093199577
58.100000000000875        0.17913101187485603
58.12000000000088         0.18238115655661424
58.140000000000896        0.18671208442850035
58.16000000000088         0.19224379332050984
58.18000000000089         0.1991362165709563
58.20000000000089         0.20759897327703344
58.220000000000894        0.21790332240564092
58.2400000000009          0.2304051086646053
58.2600000000009          0.245562395814727
58.280000000000925        0.2639715949946282
58.30000000000091         0.2864073116199245
58.3200000000009          0.31386894566055656
58.34000000000091         0.3476159535502822
58.36000000000091         0.3891247166251187
58.380000000000926        0.43973941797021504
58.400000000000915        0.49939627510237805
58.420000000000925        0.5637100959438708
58.4400000000009          0.6219484732573552
58.46000000000092         0.6631233513364703
58.480000000000885        0.6860459082049452
58.50000000000088         0.6964016861642265
58.520000000000884        0.6992656725829753
58.540000000000894        0.6963265832660959
58.5600000000009          0.685877242707918
58.58000000000089         0.6628859644299172
58.60000000000089         0.6216484626652322
58.620000000000886        0.5633688030648943
58.64000000000092         0.49903237619199464
58.66000000000091         0.43936175851462067
58.68000000000092         0.3887348558537502
58.700000000000905        0.3472122995392389
58.720000000000915        0.31344891074626924
58.74000000000094         0.28596815096131906
58.76000000000093         0.2635140093430907
58.780000000000946        0.2450800392882464
58.80000000000095         0.2298957916740708
58.82000000000094         0.21736523868473456
58.840000000000934        0.2070295638087351
58.86000000000094         0.1985351792640876
58.88000000000094         0.19160948587956184
58.900000000000944        0.18604282963173563
58.92000000000096         0.18167520105046905
58.94000000000096         0.17838651026400731
58.96000000000096         0.17608958832011076
58.98000000000096         0.17472528936150958
59.00000000000096         0.17425927319886472
59.020000000000955        0.17468017329728475
59.04000000000097         0.17599906675990343
59.06000000000099         0.17824982196047354
59.080000000000965        0.18149121637775265
59.10000000000098         0.18580997545616446
59.12000000000098         0.1913256770757171
59.140000000000974        0.19819770561043587
59.160000000000984        0.20663490958445746
59.18000000000099         0.2169088746259377
59.20000000000101         0.2293719212823208
59.220000000001           0.24448129665393092
59.240000000001004        0.2628310114099203
59.260000000001           0.28519215597207376
59.280000000001           0.31255859783275697
59.300000000001006        0.34618957284548263
59.32000000000101         0.38755500667886694
59.340000000001005        0.43799334001798185
59.360000000000994        0.49743974373196603
59.38000000000101         0.5615202321990705
59.400000000000986        0.6195341846448995
59.42000000000098         0.6605348636419247
59.44000000000097         0.6833449706213673
59.460000000000974        0.6936647251245456
59.48000000000097         0.6965105340012362
59.50000000000097         0.69358345729493
59.52000000000096         0.6832042404124024
59.540000000000965        0.6604131412203448
59.56000000000099         0.619439325307025
59.58000000000097         0.5612159394295954
59.600000000001           0.4971107290905911
59.62000000000099         0.4376470123496436
59.640000000000995        0.38719378061125037
59.660000000001           0.3458130767278773
59.680000000000994        0.3121645102555762
59.70000000000101         0.28477662307671986
59.720000000000994        0.26239448526281806
59.74000000000102         0.24402246266592462
59.760000000001           0.22888896090214278
59.780000000001           0.21639993124546217
59.800000000001           0.20609820679686017
59.820000000001016        0.1976315154159971
59.84000000000102         0.19072828473727613
59.86000000000101         0.1851799255505254
59.88000000000103         0.18082637901285473
59.90000000000102         0.1775484122425865
59.920000000001025        0.1752591910305939
59.94000000000103         0.17389980503272914
59.96000000000104         0.17343605135201134
59.980000000001006        0.17385660463147887
60.00000000000103         0.17517243101751642
60.02000000000104         0.17741737298665378
60.04000000000104         0.18064995930010508
60.06000000000105         0.18495659917000165
60.080000000001036        0.19045643650455876
60.10000000000105         0.1973082884532806
60.12000000000105         0.20572121152756184
60.14000000000105         0.21596438311992353
60.16000000000107         0.22838950551067685
60.18000000000105         0.24345216527463
60.20000000000106         0.2617442639192547
60.22000000000106         0.28403421100485665
60.24000000000106         0.3113124640579325
60.26000000000107         0.3448250619220126
60.28000000000106         0.3860291603720565
60.30000000000106         0.43625310770907905
60.32000000000107         0.49547426476977063
60.34000000000108         0.559452066371224
60.36000000000105         0.6174133812899266
60.38000000000106         0.6581609938504474
60.40000000000104         0.6807726311728337
60.42000000000106         0.6910414481045302
60.44000000000104         0.6938735148746855
60.460000000001045        0.690961813205774
60.48000000000104         0.680634105189039
60.50000000000105         0.6579487989664871
60.52000000000103         0.617146543237092
60.54000000000104         0.5591488339091258
60.56000000000107         0.49514974041330284
60.58000000000102         0.43591472551009897
60.60000000000106         0.38567877868702305
60.620000000001056        0.34446183999268803
60.640000000001066        0.31093450137655276
60.660000000001084        0.28363931031931344
60.68000000000106         0.2613269507576
60.70000000000108         0.2430143378481027
60.72000000000107         0.22792932654842904
60.74000000000108         0.2154799702030986
60.76000000000108         0.20521072449999772
60.78000000000109         0.19677056950577895
60.80000000000107         0.18988889861853664
60.82000000000109         0.1843575890780604
60.840000000001105        0.18001779361445844
60.860000000001094        0.17675029635878564
60.88000000000108         0.17446857219446785
60.90000000000109         0.1731139325603767
60.920000000001096        0.17265232346954196
60.9400000000011          0.1730724548267744
60.9600000000011          0.17438530272988684
60.98000000000112         0.17662458822702226
61.0000000000011          0.1798486358810592
61.02000000000111         0.18414355669683546
61.040000000001115        0.18962808477431478
61.06000000000111         0.19646049315270572
61.08000000000111         0.2048482028010958
61.100000000001124        0.2150609373656662
61.120000000001134        0.22744856792580873
61.14000000000112         0.24246513809066317
61.16000000000114         0.26070066151410964
61.18000000000113         0.28292154442182454
61.200000000001125        0.31011674661547634
61.22000000000113         0.3435238091599171
61.24000000000113         0.3845962054652214
61.26000000000114         0.4346585489047273
61.28000000000113         0.4936871881691217
61.30000000000114         0.5574510474157844
61.32000000000111         0.6152049345236335
61.34000000000113         0.6557901614796989
61.36000000000111         0.6783098386066282
61.38000000000111         0.6885190273753921
61.40000000000111         0.6913452130108726
61.42000000000111         0.6884550909357482
61.44000000000109         0.6781644880564952
61.46000000000111         0.6554971297028621
61.480000000001134        0.6147795758714858
61.50000000000114         0.5571622732132803
61.52000000000113         0.49337805906734994
61.54000000000112         0.43433619250156963
61.56000000000113         0.3842624915120591
61.58000000000112         0.3431780268320811
61.600000000001124        0.30975787380512837
61.620000000001134        0.28254935176610774
61.64000000000114         0.26031055556825217
61.66000000000116         0.2420544832466692
61.68000000000114         0.22701549079209127
61.70000000000116         0.21460381927677147
61.72000000000114         0.2043654957842021
61.74000000000114         0.195950672741187
61.76000000000115         0.18908922121384508
61.78000000000116         0.1835746719584143
61.800000000001155        0.17924810111492678
61.820000000001144        0.17599069937482634
61.840000000001154        0.1737162338769367
61.86000000000116         0.17236620770364197
61.880000000001154        0.17190667371153762
61.90000000000116         0.17232642594854014
61.92000000000117         0.173636399355429
61.940000000001184        0.17587023614397831
61.96000000000117         0.17908607965404477
61.98000000000118         0.18336976016520948
62.00000000000117         0.18883962781119168
62.02000000000117         0.19565344761960077
62.040000000001186        0.2040170505558169
62.06000000000119         0.2142007354418404
62.080000000001206        0.22655261447391767
62.10000000000119         0.24152525986778414
62.120000000001205        0.259706732870968
62.140000000001194        0.28186087058112463
62.1600000000012          0.30897335726293157
62.1800000000012          0.3422866175871636
62.200000000001204        0.3832572933216134
62.22000000000121         0.4332111316625945
62.240000000001196        0.4920803444556852
62.26000000000121         0.5555198323854936
62.28000000000119         0.612912748764394
62.30000000000119         0.6534258053772182
62.32000000000119         0.675944553135225
62.340000000001176        0.6861108205071079
62.36000000000118         0.6889262591875029
62.38000000000117         0.6860511064728874
62.40000000000116         0.6758081825850917
62.42000000000117         0.653238155381922
62.44000000000117         0.6126779234794558
62.46000000000119         0.5552519999663796
62.4800000000012          0.49179181145743245