% Model:              Untitled.mph
% Version:            COMSOL 5.6.0.280
% Date:               Sep 24 2021, 10:13
% Dimension:          1
% Nodes:              994
% Expressions:        1
% Description:        线图
% cln1x                   Height
49.24999999999999         0.2990250620542434
49.260000000000076        0.29832967588370296
49.280000000000086        0.2992911432926914
49.300000000000104        0.3034918613625026
49.32000000000011         0.3112021698337517
49.34000000000012         0.32288153675392595
49.36000000000011         0.33921585860311415
49.38000000000013         0.3611661309235834
49.400000000000134        0.39000988873096776
49.420000000000144        0.4273043628939224
49.440000000000154        0.47453520750740014
49.460000000000164        0.5318088667421553
49.48000000000015         0.5938727093642013
49.50000000000016         0.6495541802771414
49.520000000000174        0.6901990739743343
49.540000000000205        0.7121113718838051
49.560000000000194        0.718453223305376
49.58000000000019         0.711779217031971
49.60000000000019         0.6895110682326929
49.62000000000021         0.6483473313458966
49.6400000000002          0.5917073229546214
49.66000000000021         0.5285028612183207
49.680000000000234        0.4700929673170131
49.70000000000021         0.42146835855468945
49.72000000000022         0.38266632760504
49.74000000000024         0.35221553511001547
49.760000000000254        0.3285609473544553
49.78000000000025         0.31042276916876327
49.80000000000025         0.2968236539106476
49.82000000000027         0.2870532402798681
49.840000000000266        0.28061983488154435
49.86000000000028         0.2772127592307214
49.88000000000028         0.2766777977741374
49.90000000000029         0.27900516120461305
49.92000000000031         0.2843296145955136
49.940000000000296        0.292942251574213
49.96000000000031         0.3053099332168876
49.98000000000032         0.32210791216613166
50.00000000000033         0.3442775299500313
50.02000000000034         0.3730766871256272
50.04000000000033         0.4100270332289343
50.060000000000365        0.45657305111038005
50.08000000000035         0.5126448335144727
50.10000000000036         0.5732463075020642
50.12000000000035         0.6273954435997428
50.140000000000356        0.6668054417642815
50.160000000000366        0.6879770296524459
50.18000000000036         0.694118093038462
50.20000000000038         0.6877754069096528
50.22000000000038         0.6664353175245166
50.240000000000386        0.6267942852378672
50.260000000000396        0.572104516107367
50.280000000000406        0.5110186190698551
50.300000000000416        0.45438317263385375
50.320000000000405        0.4072172173038507
50.34000000000043         0.3696100980938087
50.36000000000043         0.34012955457470534
50.38000000000044         0.31725829818845586
50.400000000000446        0.29974860579780316
50.42000000000046         0.28665365786665786
50.44000000000047         0.2772859757140259
50.46000000000046         0.2711704798460684
50.48000000000047         0.2680079562990969
50.500000000000476        0.26765124144585384
50.520000000000486        0.27009349208336064
50.54000000000049         0.2754678381339283
50.56000000000051         0.28405667068735135
50.58000000000051         0.2963207640363177
50.60000000000052         0.3129269543501711
50.62000000000053         0.33479902313332527
50.640000000000526        0.3631577084765331
50.66000000000054         0.39949062611764874
50.68000000000056         0.4452049453919766
50.70000000000054         0.5002151415184447
50.72000000000055         0.5595888541743702
50.740000000000556        0.6125421185236086
50.76000000000056         0.6510232633849796
50.78000000000056         0.6716488470137002
50.800000000000566        0.6776282388619677
50.82000000000058         0.6714810994580487
50.84000000000057         0.650665410699155
50.860000000000575        0.6119543565372887
50.88000000000058         0.5587225029380947
50.9000000000006          0.4990136788548697
50.92000000000062         0.44361903813234654
50.94000000000062         0.3974849583967772
50.96000000000063         0.3607082203789433
50.980000000000636        0.33188858313343084
51.00000000000064         0.30954172142702285
51.02000000000065         0.2924473120312943
51.04000000000065         0.27967966763325514
51.06000000000068         0.27056698786040706
51.080000000000666        0.2646454110834555
51.10000000000067         0.2616234912756646
51.12000000000067         0.26135776566712
51.14000000000069         0.26384360712337207
51.16000000000069         0.26921304158390713
51.1800000000007          0.2777462192390932
51.20000000000071         0.28989407908082904
51.22000000000071         0.30631341804059786
51.24000000000071         0.32791212227733196
51.26000000000073         0.35588943139370055
51.28000000000072         0.3917061107885404
51.30000000000074         0.4367418999154408
51.32000000000075         0.4909022390007007
51.34000000000075         0.549310854282395
51.36000000000075         0.6013423736980206
51.380000000000734        0.6391889605178226
51.40000000000074         0.659335609888076
51.42000000000074         0.6651914694716372
51.440000000000765        0.6591820436419984
51.46000000000077         0.6387980502724818
51.48000000000077         0.6008319103870654
51.50000000000078         0.5485813600990592
51.52000000000079         0.489921327203484
51.540000000000816        0.4354784352014782
51.56000000000083         0.3901353920799112
51.58000000000084         0.3539932056753236
51.60000000000083         0.3256764819586449
51.62000000000085         0.3037265426662367
51.64000000000084         0.2869442774051963
51.66000000000085         0.2744219999378114
51.68000000000085         0.2654958268183862
51.70000000000087         0.2597129196590341
51.72000000000089         0.2567872838377055
51.74000000000088         0.2565794314653251
51.760000000000886        0.2590852174474329
51.7800000000009          0.26443562384461905
51.800000000000885        0.27290748693666006
51.82000000000092         0.28494582069072866
51.840000000000906        0.3011983565161041
51.860000000000916        0.32256008791518365
51.880000000000926        0.3502128655782101
51.90000000000094         0.3855957836583573
51.92000000000093         0.4299952595986487
51.94000000000094         0.4834275111599818
51.960000000000946        0.5411536726708229
51.98000000000094         0.5925951446582964
52.00000000000094         0.6297414641559063
52.020000000000934        0.6495777699934686
52.04000000000095         0.6553435670604936
52.06000000000094         0.6494405923854737
52.08000000000096         0.6293896335197567
52.10000000000098         0.5920061101848701
52.12000000000098         0.5405298563758204
52.140000000000995        0.4827061722124375
52.160000000001           0.42902566966979166
52.18000000000104         0.384316154567339
52.20000000000103         0.34867453735151993
52.22000000000105         0.3207665621899136
52.24000000000106         0.2991339968965035
52.26000000000104         0.2825988556367563
52.28000000000106         0.2702663199676296
52.30000000000107         0.26148668633563427
52.32000000000107         0.255811522170801
52.34000000000109         0.2529593474761834
52.36000000000108         0.25279324013737264
52.380000000001104        0.25530986019973967
52.40000000000111         0.26063927494071953
52.42000000000112         0.2690555812740484
52.44000000000114         0.280998957993351
52.46000000000112         0.297109759458059
52.48000000000113         0.31827344716100203
52.50000000000115         0.3456484259612296
52.52000000000115         0.38065069574349725
52.54000000000114         0.4246139220688268
52.560000000001146        0.4774714495848494
52.58000000000116         0.5345551047017533
52.600000000001124        0.5853966132070215
52.62000000000113         0.6220930318107295
52.64000000000112         0.64167605387321
52.66000000000113         0.6473655929132779
52.68000000000113         0.641541666533734
52.700000000001125        0.6217499283653064
52.72000000000114         0.5848303968615737
52.74000000000116         0.5339821695263814
52.760000000001185        0.47674022896977974
52.7800000000012          0.42371312388579624
52.80000000000121         0.37956721199226356
52.82000000000125         0.34437053796279293
52.84000000000124         0.31679119120246224
52.86000000000126         0.2954167444669042
52.880000000001246        0.2790833568994041
52.90000000000125         0.26690700727829714
52.92000000000126         0.258245918011349
52.94000000000126         0.252657252438237
52.96000000000128         0.24986322562800478
52.98000000000128         0.24972899852548042
53.00000000000127         0.2522518580142955
53.02000000000129         0.25756212992598065
53.0400000000013          0.2659301094519655
53.06000000000132         0.27779242581745145
53.08000000000131         0.2937828543654151
53.10000000000133         0.3147757477847086
53.120000000001326        0.3419232718799033
53.14000000000133         0.37662440136765074
53.16000000000133         0.4201984608156548
53.180000000001336        0.47257613504608226
53.20000000000134         0.5291267544461122
53.22000000000133         0.5794762671274858
53.24000000000134         0.6158076006913694
53.26000000000132         0.6351893179221842
53.28000000000132         0.6408224563093328
53.300000000001326        0.6350707124779276
53.32000000000134         0.6155670696146693
53.34000000000136         0.5791099996331581
53.360000000001385        0.5286329328834185
53.38000000000139         0.4719500503004028
53.400000000001405        0.4194321432608953
53.420000000001416        0.3757090431644381
53.440000000001426        0.34085056558612853
53.460000000001436        0.31353811360312583
53.48000000000145         0.2923730558259891
53.500000000001464        0.27620293790868206
53.52000000000147         0.26415243394901927
53.54000000000147         0.2555861458023457
53.56000000000147         0.25006517628857877
53.58000000000149         0.24731621941302698
53.60000000000149         0.24720508770811
53.62000000000149         0.24972957453127437
53.6400000000015          0.2550182708263798
53.66000000000151         0.2633409972387976
53.680000000001506        0.27513037758957537
53.700000000001516        0.2910150245768539
53.720000000001534        0.3118620004143769
53.74000000000154         0.3388136863098718
53.76000000000154         0.37325698029744625
53.78000000000154         0.4164992813987028
53.80000000000154         0.4684692500592749
53.82000000000152         0.524568008135985
53.840000000001524        0.5743566835336685
53.860000000001506        0.6104546448419442
53.880000000001495        0.6297332709497581
53.90000000000151         0.6353176854909045
53.920000000001515        0.6296213916072325
53.94000000000152         0.6102960036119347
53.96000000000155         0.5741587580491953
53.98000000000156         0.5241138480915666
54.000000000001606        0.46790411943509547
54.020000000001595        0.41581931576454306
54.040000000001605        0.37245573246781327
54.060000000001615        0.3378842446014844
54.080000000001625        0.3107977016776375
54.10000000000166         0.289809336434077
54.120000000001646        0.27377415854449605
54.14000000000165         0.2618295506977443
54.16000000000166         0.2533425590576438
54.18000000000168         0.24787856015612428
54.20000000000168         0.24516524031438258
54.22000000000169         0.24507082512911044
54.24000000000169         0.24759344056906077
54.260000000001696        0.25286099101748316
54.28000000000169         0.2611415215055941
54.30000000000171         0.2728646322325805
54.3200000000017          0.2886544134508136
54.340000000001744        0.30937157202144366
54.36000000000174         0.33614996664115887
54.380000000001736        0.37039370012778705
54.40000000000174         0.4133859817529999
54.42000000000174         0.4650244489354222
54.44000000000174         0.52062976667106
54.4600000000017          0.5700657282915512
54.48000000000171         0.6059002056344116
54.50000000000172         0.6250353639587232
54.52000000000173         0.6305795346089792
54.54000000000171         0.624931505336944
54.560000000001736        0.605758725514479
54.58000000000174         0.5698958365719228
54.600000000001764        0.5202223758512796
54.620000000001816        0.4644202988708562
54.640000000001805        0.41270885597155926
54.66000000000182         0.3696826728767842
54.680000000001826        0.33533684972724975
54.700000000001836        0.3084368432570888
54.72000000000186         0.2875980823607897
54.740000000001864        0.2716824201138413
54.76000000000186         0.25982693851632804
54.780000000001856        0.25140592634384357
54.800000000001866        0.24598804219674514
54.82000000000188         0.24330306647801656
54.84000000000189         0.24322033548324776
54.860000000001904        0.24573821578232302
54.8800000000019          0.25098397549951
54.9000000000019          0.25922407390885444
54.920000000001934        0.2708854366521525
54.940000000001916        0.2865856512334056
54.960000000001955        0.30718654059959827
54.98000000000194         0.33381614380223606
55.00000000000195         0.36784972198857985
55.020000000001936        0.41058194296552447
55.040000000001946        0.46190287140743114
55.060000000001935        0.5171585804294815
55.080000000001924        0.5662739055835331
55.10000000000192         0.6018704745591489
55.12000000000192         0.6208740514234447
55.140000000001905        0.6263797678185988
55.16000000000192         0.6207732466838006
55.18000000000193         0.6017352637556949
55.20000000000194         0.5659730934232805
55.22000000000198         0.5167663172068366
55.24000000000201         0.4614249097350282
55.260000000002016        0.4100186190637907
55.280000000002026        0.36719752451882215
55.30000000000206         0.33307011287367494
55.320000000002054        0.30634132379657003
55.34000000000207         0.2856356985987301
55.36000000000208         0.26982256275525396
55.380000000002084        0.2580446735613608
55.400000000002066        0.24968045891208843
55.42000000000209         0.24430147102907457
55.4400000000021          0.24163934913373314
55.46000000000211         0.24156436755814029
55.48000000000213         0.24407445165613922
55.500000000002125        0.2492968641015306
55.52000000000214         0.2574963592931505
55.54000000000214         0.2690974610599743
55.56000000000215         0.28471704319214525
55.580000000002165        0.30520655685060843
55.60000000000216         0.33168948079689464
55.62000000000217         0.3655326579756818
55.64000000000217         0.40802255183934916
55.660000000002164        0.45904858244371854
55.68000000000215         0.5139813609177433
55.70000000000214         0.562802980394599
55.72000000000212         0.5981829601477628
55.740000000002105        0.6170680396649405
55.7600000000021          0.6225396248211921
55.780000000002104        0.6169701754789115
55.80000000000213         0.5979883792209375
55.82000000000214         0.5625153983453954
55.84000000000217         0.5136084148493031
55.86000000000221         0.458597141853129
55.88000000000223         0.4074939015114855
55.90000000000223         0.364923960681194
55.920000000002254        0.3309962198363431
55.94000000000226         0.30442367659464176
55.960000000002275        0.28383923433925506
55.98000000000227         0.26811906657497536
56.000000000002295        0.2564111211449468
56.02000000000229         0.24809862110659076
56.04000000000231         0.24275322160321489
56.06000000000232         0.24010983641100686
56.080000000002315        0.2400395446598762
56.10000000000234         0.24254084370982792
56.12000000000233         0.2477396063267536
56.14000000000233         0.2558993135497297
56.16000000000235         0.2674421309413779
56.180000000002345        0.28298145766222504
56.200000000002376        0.30336390148345393
56.22000000000237         0.3297065047333368
56.24000000000237         0.3633682184527146
56.26000000000235         0.40562787169632464
56.28000000000235         0.4563744601492953
56.300000000002356        0.5110071798573234
56.32000000000234         0.5596885997822565
56.34000000000232         0.5947906805811861
56.36000000000231         0.6134985698451008
56.38000000000231         0.6189374299375815
56.40000000000232         0.6134032941124987
56.420000000002354        0.5945361790096657
56.44000000000235         0.5592707616309496
56.460000000002374        0.5106447902878455
56.4800000000024          0.45594340004733847
56.50000000000243         0.40512476588796953
56.520000000002454        0.36279063367240616
56.54000000000246         0.32905023454939675
56.560000000002475        0.3026241327550489
56.5800000000025          0.28215557047953604
56.60000000000249         0.26652195799520356
56.62000000000249         0.25487842133392635
56.64000000000251         0.24661113852489538
56.66000000000251         0.2412968155014411
56.68000000000252         0.2386703007411618
56.700000000002525        0.23860347258335757
56.72000000000254         0.2410949212999329
56.74000000000253         0.24626986723730498
56.76000000000256         0.2543903590752673
56.78000000000255         0.26587628842605104
56.800000000002555        0.28133774339650236
56.82000000000258         0.30161673086334406
56.84000000000256         0.32781779506036907
56.86000000000257         0.36128438542899627
56.880000000002575        0.4032825623053418
56.90000000000257         0.4537365875561792
56.92000000000255         0.5081705959321956
56.94000000000255         0.5565862981061561
56.96000000000253         0.5914934432899307
56.98000000000252         0.6100948700674554
57.000000000002515        0.615502788408701
57.02000000000251         0.6100020829401861
57.04000000000255         0.5912442733184649
57.06000000000255         0.5561768602794129
57.080000000002585        0.5078190407332083
57.100000000002616        0.4534134330811826
57.12000000000265         0.4027987091459898
57.14000000000267         0.36073049545149927
57.16000000000268         0.32718982855800566
57.180000000002686        0.300910893197944
57.20000000000273         0.2805498132182108
57.2200000000027          0.26499912555185845
57.24000000000271         0.2534177206080875
57.26000000000271         0.2451951413704592
57.28000000000271         0.23991042247751904
57.30000000000274         0.237299888634843
57.32000000000274         0.23723616587548452
57.34000000000276         0.23971792947811
57.36000000000275         0.24486981052347576
57.38000000000277         0.2529524946679727
57.400000000002784        0.2643858983727323
57.42000000000277         0.2797726481756604
57.44000000000279         0.2999505110851931
57.4600000000028          0.3260207581052482
57.4800000000028          0.35931981269496205
57.5000000000028          0.40110597017402844
57.52000000000279         0.4513031277480971
57.54000000000277         0.5054568151190872
57.560000000002745        0.5536189910043512
57.58000000000272         0.58834087457406
57.60000000000271         0.6068418684078064
57.62000000000272         0.612221043588078
57.6400000000027          0.6067525332217523
57.66000000000275         0.5881651567406453
57.680000000002764        0.553360625552873
57.70000000000278         0.5051245099503602
57.72000000000283         0.45090418794925274
57.74000000000285         0.4006423392854595
57.76000000000287         0.35878954935928803
57.78000000000289         0.32542015007961805
57.80000000000289         0.2992751638383242
57.82000000000292         0.2790178297895247
57.84000000000291         0.2635465253952569
57.86000000000291         0.2520245714875713
57.88000000000292         0.24384472729751822
57.90000000000294         0.2385882518810357
57.92000000000294         0.23599287716092046
57.940000000002954        0.23593211101301587
57.96000000000297         0.2384047174196372
57.98000000000297         0.24353465833089294
58.00000000000297         0.2515813831742114
58.02000000000298         0.2629603588468324
58.04000000000298         0.2782749341059184
58.06000000000301         0.29835701214063975
58.080000000003004        0.3243022523015135
58.10000000000301         0.3574402216255034
58.120000000003           0.3990226191001262
58.14000000000299         0.44897303771742797
58.16000000000298         0.5028576649972675
58.180000000002956        0.550776790729706
58.20000000000292         0.5853212365203784
58.22000000000292         0.6037253119191052
58.240000000002915        0.6090778057707855
58.26000000000293         0.6036405688338679
58.28000000000294         0.5851514745183484
58.30000000000295         0.5505274002475051
58.320000000003           0.5025372411585338
58.340000000003016        0.4485887076027214
58.36000000000305         0.3985764108457943
58.380000000003086        0.3569304332532648
58.40000000000309         0.32372541166559077
58.42000000000311         0.2977089288649227
58.44000000000313         0.2775510562316212
58.46000000000312         0.2621557774182238
58.48000000000312         0.2506890723331536
58.50000000000313         0.2425505537792539
58.52000000000315         0.2373213089317475
58.540000000003154        0.23474044278347692
58.56000000000316         0.2346820147100825
58.580000000003174        0.2371448803141158
58.60000000000316         0.24225260522819358
58.62000000000318         0.25026342241348665
58.640000000003184        0.2615907929925785
58.660000000003194        0.2768350759241119
58.68000000000321         0.29682405431318165
58.7000000000032          0.32264797620170343
58.72000000000321         0.3556298161845396
58.74000000000321         0.3970149451925559
58.760000000003195        0.44681847624410415
58.780000000003184        0.500345820823052
58.80000000000315         0.5478960589267216
58.82000000000311         0.5823421419239396
58.84000000000314         0.6007189451919415
58.860000000003126        0.6060447056077797
58.88000000000313         0.6006369718788913
58.90000000000316         0.5822437406414832
58.92000000000317         0.5477940500100396
58.9400000000032          0.500041467416682
58.96000000000325         0.4463553046721696
58.98000000000325         0.39658386784681854
59.00000000000328         0.35513751636802915
59.0200000000033          0.3220911764478196
59.04000000000332         0.2961978911094863
59.06000000000334         0.27613442717197295
59.08000000000333         0.2608127100268005
59.10000000000334         0.24940299373787625
59.120000000003344        0.2413036546844602
59.140000000003354        0.23610004900309037
59.16000000000335         0.23353257335857874
59.18000000000336         0.23347592499974265
59.20000000000338         0.23592899689331598
59.22000000000338         0.24101479763106246
59.240000000003384        0.2489903698683716
59.26000000000339         0.26026725094546455
59.2800000000034          0.2754429456448949
59.30000000000338         0.2953403927351532
59.320000000003425        0.32105343813652937
59.34000000000343         0.3539040125029819
59.36000000000342         0.3951376996877705
59.380000000003406        0.4446425082022148
59.40000000000338         0.49791768050243135
59.42000000000337         0.5452398304472764
59.44000000000334         0.5795183947511576
59.46000000000334         0.5978038892803788
59.48000000000333         0.6031032062611195
59.500000000003325        0.5977237781784783
59.52000000000335         0.5794233134239489
59.540000000003374        0.545142697003643
59.560000000003406        0.49762066604328087
59.580000000003444        0.44428050794470547
59.600000000003476        0.39471864461116035
59.6200000000035          0.3534264436864751
59.64000000000353         0.32051405168118696
59.66000000000352         0.29473518641021396
59.680000000003524        0.27476514257780776
59.70000000000354         0.25951480787667264
59.72000000000355         0.24815841613750025
59.74000000000355         0.24009722852179846
59.76000000000356         0.2349185921206128
59.78000000000356         0.23236415716367706
59.800000000003564        0.23230923952949634
59.82000000000358         0.23475276692443636
59.840000000003585        0.2398172025457036
59.8600000000036          0.24775683723958755
59.880000000003584        0.25898388730625815
59.9000000000036          0.2740925486438199
59.92000000000362         0.2939041674459287
59.940000000003614        0.31950237920851116
59.96000000000364         0.35220534158213296
59.98000000000365         0.39325271056990363
60.00000000000362         0.4425323977251157
60.0200000000036          0.49556263513828036
60.04000000000358         0.5426633530107516
60.06000000000355         0.5767792830490255
60.080000000003544        0.5949760061221524
60.100000000003526        0.600249169084223
60.12000000000353         0.5948960874508643
60.140000000003546        0.5766191105174588
60.16000000000358         0.5424285060621756
60.1800000000036          0.4952616927482347
60.20000000000365         0.4421748034506457
60.22000000000368         0.39284185589355713
60.2400000000037          0.35173962258539976
60.260000000003714        0.31897819907691516
60.280000000003724        0.2933173277246686
60.30000000000373         0.27343860045454066
60.32000000000375         0.2582580570762511
60.34000000000376         0.24695382791367496
60.36000000000376         0.23892999611535612
60.38000000000376         0.23377585561644731
60.40000000000378         0.23123444565580306
60.42000000000378         0.23118102640767688
60.440000000003806        0.23361502792653213
60.460000000003795        0.23865832339450704
60.48000000000381         0.24656562061324272
60.50000000000382         0.25774483134694975
60.520000000003805        0.27278848686440754
60.54000000000382         0.2925142199458249
60.56000000000382         0.3180006904114704
60.58000000000384         0.350559982627474
60.60000000000383         0.39142597270215523
60.620000000003834        0.4404865911230356
60.6400000000038          0.4932790312837962
60.660000000003784        0.5401658463471132
60.680000000003744        0.5741902975228595
60.70000000000374         0.5922386795251237
60.72000000000373         0.5974875778108759
60.74000000000374         0.5921618617597276
60.76000000000376         0.5739749104597524
60.78000000000378         0.5399449106822333
60.80000000000382         0.4929952596283768
60.820000000003866        0.44014740288634807
60.8400000000039          0.39103401974428836
60.860000000003915        0.3501140014033211
60.880000000003925        0.317497615810517
60.900000000003956        0.29195029026837876
60.920000000003974        0.2721595553977794
60.94000000000397         0.2570485021373077
60.96000000000397         0.24579398125273344
60.980000000003976        0.23780559764080997
61.000000000003986        0.23267458774839886
61.02000000000399         0.2301449673060072
61.04000000000399         0.23009317124177422
61.06000000000403         0.23251812346611508
61.08000000000401         0.23754117589445703
61.10000000000402         0.24541592557667982
61.12000000000403         0.25654849554931936
61.140000000004044        0.2715288177046923
61.16000000000406         0.2911709354686464
61.18000000000405         0.3165487243313368
61.20000000000407         0.34896838213749337
61.220000000004056        0.38959226550217047
61.24000000000403         0.4384159677029881
61.260000000004           0.4910733494108338
61.28000000000399         0.537884336531456
61.300000000003955        0.5716201863613414
61.320000000003944        0.5895872025284873
61.340000000003926        0.5948130324359605
61.360000000003936        0.5895134651307667
61.380000000003946        0.5714112724728203
61.40000000000398         0.5375355541835897
61.42000000000402         0.49079567996754125
61.44000000000406         0.4381804132005309
61.460000000004094        0.3892814369268463
61.48000000000412         0.3485394837453567
61.50000000000414         0.31605864379970794
61.52000000000417         0.29062932317978063
61.540000000004156        0.2709261799422529
61.56000000000417         0.2558785802269727
61.58000000000418         0.24467335321647057
61.60000000000419         0.23672032440385893
61.62000000000419         0.2316125515469539
61.64000000000419         0.22909520897655344
61.6600000000042          0.22904530643537974
61.68000000000423         0.23146180584770254
61.700000000004216        0.23646556943803693
61.72000000000422         0.2443091375042079
61.74000000000423         0.25539692365605476
61.76000000000425         0.27031876411508743
61.78000000000425         0.28987891603410587
61.800000000004246        0.31514521164587833
61.820000000004256        0.34741064786664405
61.84000000000427         0.38789196601929843
61.86000000000425         0.43651164240362805
61.88000000000421         0.4889467666626286
61.900000000004205        0.5355567425908725
61.92000000000415         0.5691457474938864
61.940000000004154        0.5870329787683068
61.960000000004136        0.5922356398571544
61.98000000000414         0.5869607423278884
62.000000000004164        0.5689399028937929
62.02000000000419         0.5352127511799188
62.04000000000423         0.4886806373517027
62.06000000000425         0.4361948081229619
62.0800000000043          0.3875270114902812
62.100000000004336        0.3469964211555383
62.12000000000435         0.31467884898374343
62.14000000000436         0.2893568250117298
62.160000000004366        0.26973691074482314
62.18000000000437         0.2547530624426153
62.200000000004394        0.24359559643823162
62.22000000000439         0.2356768695522668
62.24000000000439         0.23059168836318192
62.260000000004396        0.22808633869166828
62.28000000000441         0.2280383973512405
62.30000000000443         0.23044687357273175
62.32000000000443         0.2354331442146058
62.34000000000444         0.24324732498965704
62.36000000000444         0.2542926287262561