% Model:              Untitled.mph
% Version:            COMSOL 5.6.0.280
% Date:               Sep 24 2021, 10:16
% Dimension:          1
% Nodes:              994
% Expressions:        1
% Description:        线图
% cln2x                   Height
21.910000000000007        0.2163769051316578
21.920000000000027        0.21660563299190555
21.940000000000026        0.2189302115783163
21.960000000000033        0.22385037961982857
21.980000000000036        0.23160464808728162
22.000000000000036        0.2425767588685447
22.020000000000035        0.25732519021608824
22.040000000000042        0.27662082501091384
22.060000000000045        0.3014792492620656
22.080000000000037        0.33313147558547435
22.100000000000048        0.3727287862837825
22.120000000000054        0.4202505999484374
22.14000000000005         0.4712061327650033
22.160000000000046        0.516391682601283
22.180000000000042        0.5491008534508934
22.200000000000042        0.5665570183034266
22.220000000000052        0.5716529902718803
22.240000000000048        0.5665933183432477
22.260000000000055        0.5492290369339238
22.28000000000007         0.5166090161985464
22.30000000000006         0.4712963177150761
22.32000000000006         0.42022828272618773
22.340000000000064        0.37276142428301745
22.360000000000067        0.3331223289502132
22.38000000000007         0.30142177527248093
22.40000000000007         0.2765084118138115
22.42000000000007         0.2571507908531632
22.44000000000008         0.24233484622726253
22.460000000000075        0.2312867614016685
22.48000000000008         0.22344571638098998
22.50000000000008         0.21842560449329967
22.52000000000009         0.21598522055328792
22.540000000000084        0.2160089020665037
22.560000000000088        0.21849713816010294
22.58000000000009         0.22356659654201347
22.600000000000097        0.23145955697551032
22.620000000000093        0.24256326331765068
22.640000000000096        0.25743958735849626
22.6600000000001          0.2768620548577839
22.6800000000001          0.3018583014279721
22.700000000000095        0.33366789374529154
22.720000000000102        0.3734506354727269
22.7400000000001          0.4210630854279438
22.76000000000011         0.4721711113983564
22.780000000000108        0.5174853364855162
22.800000000000107        0.5502857959096155
22.820000000000103        0.5677916438441243
22.84000000000011         0.5729040697400933
22.86000000000011         0.567834641396852
22.88000000000011         0.5504316465649848
22.900000000000112        0.5177398744602171
22.920000000000122        0.4723291641010928
22.94000000000012         0.4212415134406535
22.96000000000012         0.373652823944265
22.98000000000013         0.33389355425043266
23.00000000000013         0.3021086526794975
23.02000000000013         0.2771390839211588
23.040000000000134        0.25774331012929114
23.06000000000014         0.2428988288283196
23.080000000000137        0.23183016587240923
23.10000000000014         0.2239753105764992
23.12000000000014         0.2189473519995715
23.140000000000146        0.21650460291262494
23.160000000000146        0.2165312004269558
23.180000000000152        0.2190276970608515
23.200000000000152        0.22411109121007738
23.220000000000162        0.2320227236817504
23.24000000000015         0.2431533262832824
23.260000000000154        0.2580655987017764
23.28000000000016         0.2775371146660709
23.30000000000016         0.30259308651364375
23.32000000000017         0.3344784688274385
23.340000000000167        0.37435593697454755
23.360000000000174        0.42208194991751663
23.38000000000018         0.4733126179049513
23.400000000000176        0.518736912524757
23.42000000000017         0.5516181130154127
23.440000000000165        0.5691682843477
23.460000000000164        0.5742948167644728
23.480000000000175        0.569214515478715
23.50000000000017         0.5517076917819284
23.520000000000174        0.5188669710097235
23.540000000000184        0.4734770683948268
23.560000000000183        0.42227445256572843
23.580000000000183        0.37457342929117343
23.600000000000186        0.33472095552506614
23.620000000000186        0.30286218950211186
23.640000000000192        0.2778351776954781
23.66000000000019         0.25839531464994586
23.680000000000195        0.24351760088204846
23.700000000000202        0.23242466439053955
23.7200000000002          0.22455311822465973
23.7400000000002          0.21951511406217877
23.760000000000204        0.2170685630848324
23.78000000000021         0.21709666252643392
23.80000000000021         0.2196004711289025
23.820000000000213        0.2246972499569807
23.84000000000022         0.23263051246300467
23.860000000000216        0.2437895583914283
23.88000000000021         0.2587395234828794
23.90000000000022         0.27825997079608783
23.920000000000222        0.30337873065421844
23.94000000000022         0.3353439404154212
23.960000000000218        0.37532130624196836
23.980000000000224        0.4231673024129347
24.000000000000234        0.4745282249599155
24.020000000000227        0.5200705985551668
24.040000000000223        0.5531021732148443
24.060000000000226        0.5706386352357815
24.080000000000222        0.5757802797962475
24.10000000000023         0.5706874216545177
24.120000000000232        0.5531367255313762
24.140000000000235        0.5202122995027179
24.160000000000245        0.47470716578369127
24.18000000000024         0.42337571318228584
24.200000000000248        0.37555556493593695
24.220000000000244        0.3356042338761677
24.24000000000025         0.30366702623804576
24.260000000000257        0.27857892905389786
24.280000000000257        0.25909211401377963
24.30000000000026         0.24418113992359172
24.320000000000267        0.2330616797376017
24.34000000000026         0.22517171031783018
24.360000000000262        0.22012247556849332
24.380000000000262        0.2176710812264889
24.40000000000027         0.21770107443159728
24.42000000000026         0.22021301176469427
24.440000000000275        0.22532450439482907
24.460000000000285        0.2332797564028741
24.48000000000028         0.24446915511405498
24.500000000000284        0.25945940693249697
24.520000000000277        0.2790322400267222
24.54000000000028         0.3042183456664494
24.560000000000283        0.3362693556866322
24.580000000000283        0.3762890267212644
24.600000000000286        0.42424083618739766
24.620000000000285        0.4758359209228351
24.640000000000292        0.5216316920058119
24.660000000000284        0.554619434925689
24.680000000000284        0.5722050142008166
24.700000000000287        0.5773613538973349
24.72000000000029         0.5722539946470344
24.740000000000286        0.5546538162522753
24.760000000000296        0.521638785694849
24.780000000000303        0.476010202245274
24.800000000000303        0.4245423707782244
24.820000000000302        0.37659679110909106
24.84000000000031         0.33654139993957194
24.860000000000312        0.3045152264790235
24.88000000000031         0.27936974290823735
24.900000000000308        0.25983491494621036
24.920000000000318        0.2448840392349516
24.940000000000328        0.23373708783701294
24.960000000000317        0.22582814929531586
24.980000000000324        0.22076742082547707
25.00000000000033         0.2183113652723341
25.020000000000326        0.2183432409899299
25.04000000000033         0.22086364303509864
25.06000000000033         0.2259905497446955
25.080000000000336        0.23396889061742568
25.100000000000342        0.24519019524168395
25.120000000000342        0.2602252003958783
25.140000000000338        0.27985153799440166
25.16000000000034         0.30510140315107204
25.18000000000034         0.3372225421584108
25.20000000000034         0.3773815026009343
25.22000000000034         0.4254691134525143
25.24000000000034         0.47721153135117506
25.26000000000035         0.5231400937617925
25.28000000000034         0.55622508381494
25.300000000000338        0.5738640965291154
25.320000000000338        0.5790372736320087
25.340000000000337        0.5739159240677276
25.36000000000034         0.5562649575625132
25.380000000000347        0.5231551788449119
25.400000000000354        0.4774025465692572
25.42000000000036         0.4256944523817988
25.440000000000357        0.3776383460857832
25.46000000000036         0.3375108493852364
25.480000000000363        0.3054228162888383
25.500000000000366        0.2802085709229624
25.520000000000373        0.260620837668085
25.540000000000372        0.24562994552571954
25.560000000000386        0.23445364001996322
25.580000000000382        0.22652440940260724
25.600000000000378        0.2214513355413345
25.620000000000378        0.21899018602253667
25.64000000000038         0.2190239019062581
25.660000000000384        0.22155311110549306
25.680000000000383        0.2266971728724067
25.700000000000387        0.23470036271393468
25.720000000000397        0.24595586342533374
25.740000000000393        0.26103333146882246
25.760000000000396        0.28071776316690383
25.780000000000403        0.30604232532341064
25.800000000000402        0.33825859931387564
25.8200000000004          0.3785367858073241
25.8400000000004          0.4267677464546293
25.8600000000004          0.4786657303556247
25.880000000000393        0.5247345647983683
25.900000000000396        0.557922337901306
25.920000000000393        0.5756179585735611
25.94000000000039         0.5808092874219946
25.96000000000039         0.5756747951744502
25.9800000000004          0.558034630515316
26.0000000000004          0.5248980050037497
26.02000000000041         0.4788725289909221
26.040000000000425        0.42701023807962335
26.060000000000418        0.3788115102586284
26.080000000000418        0.3385656954907119
26.100000000000417        0.30638379975057894
26.120000000000424        0.28109646925972775
26.14000000000043         0.26145254162376796
26.160000000000426        0.24641915434157383
26.18000000000043         0.23521164993116822
26.20000000000044         0.22726080596201445
26.22000000000043         0.22217398619127046
26.24000000000043         0.2197076829103176
26.260000000000435        0.21974353984401435
26.280000000000435        0.22228227562828654
26.30000000000044         0.22744270819196616
26.320000000000448        0.23547135710940764
26.340000000000444        0.2467621354132176
26.360000000000458        0.261886530695885
26.380000000000454        0.28163206075131525
26.400000000000453        0.30703521454400323
26.42000000000046         0.33935161346441856
26.440000000000456        0.379755303610965
26.460000000000452        0.42813717762669984
26.48000000000046         0.48019893942236824
26.500000000000455        0.5262794137043617
26.52000000000046         0.5596475035418371
26.540000000000457        0.5774654494041771
26.560000000000453        0.5826759445965508
26.580000000000453        0.5775254828513445
26.60000000000045         0.5598284683811403
26.62000000000046         0.5265861142154218
26.640000000000462        0.4804151420577516
26.66000000000046         0.42839114459548444
26.680000000000476        0.38004353165237137
26.700000000000475        0.33967421860592684
26.720000000000475        0.30739423992627146
26.740000000000478        0.2820304468120212
26.760000000000485        0.26232525790734473
26.780000000000484        0.24724751761308286
26.800000000000487        0.23600786657173936
26.820000000000498        0.22803484166275803
26.840000000000494        0.22293505424399246
26.860000000000497        0.22046280344625685
26.880000000000496        0.22050038164004
26.900000000000496        0.2230485311987052
26.920000000000503        0.22822648376596966
26.9400000000005          0.23628159421569747
26.96000000000051         0.24760909853261867
26.980000000000512        0.2627823971255785
27.000000000000508        0.2825916414489681
27.02000000000051         0.30807678900517055
27.04000000000051         0.340524285881152
27.06000000000051         0.3810983774369533
27.080000000000506        0.4296615537208689
27.100000000000513        0.481798834485628
27.12000000000051         0.5280397256174841
27.1400000000005          0.5615214921314998
27.16000000000051         0.5794021037548409
27.180000000000504        0.5846322400730359
27.200000000000497        0.5794653132850989
27.22000000000051         0.5617090491103098
27.24000000000051         0.5283561733729468
27.260000000000524        0.48203291976804513
27.280000000000527        0.4298393982611557
27.300000000000544        0.38133562094954426
27.320000000000537        0.34086347469707556
27.34000000000054         0.30846035007401185
27.36000000000054         0.28300924976935576
27.380000000000543        0.26324316767570066
27.40000000000055         0.24811874795032796
27.420000000000545        0.2368447790329281
27.44000000000055         0.22884789219683357
27.46000000000055         0.22373341063462437
27.48000000000055         0.2212548563940042
27.50000000000055         0.22129415617553347
27.520000000000554        0.22385207649538288
27.540000000000553        0.2290482805789589
27.560000000000564        0.2371309992515505
27.580000000000563        0.24849465209618704
27.60000000000057         0.2637188613714898
27.620000000000573        0.28359637244071473
27.64000000000057         0.30917451508989907
27.660000000000572        0.34172520142117374
27.680000000000565        0.3824367654651815
27.700000000000568        0.4311652566702186
27.72000000000056         0.48348142787725873
27.74000000000056         0.5298830026094586
27.76000000000056         0.563482599296874
27.780000000000566        0.5814275274932711
27.800000000000566        0.5866771615706879
27.820000000000558        0.5814919668877652
27.84000000000056         0.5636725654763232
27.860000000000564        0.5300660803975856
27.880000000000575        0.4837143786775523
27.900000000000574        0.4314403796386194
27.92000000000058         0.3827503846782311
27.94000000000059         0.34207734010503765
27.960000000000594        0.3095672303121389
27.980000000000594        0.2840327300769377
28.000000000000597        0.26420245402124687
28.0200000000006          0.2490294374544874
28.0400000000006          0.23771973082773015
28.060000000000603        0.22969798387728724
28.080000000000613        0.22456816488329606
28.10000000000061         0.22208297566055235
28.12000000000061         0.22212397976579903
28.140000000000615        0.22469143599879368
28.160000000000615        0.22990607046047926
28.18000000000061         0.23801682776342525
28.200000000000614        0.24942186506866376
28.220000000000613        0.2646991282369223
28.240000000000627        0.28464583721346437
28.260000000000623        0.3103131271354293
28.280000000000626        0.3429775450794985
28.30000000000063         0.3838318390917686
28.320000000000626        0.4327320360844891
28.34000000000062         0.4852343344354525
28.36000000000062         0.531803669996107
28.380000000000614        0.5655266408806496
28.40000000000061         0.5835394123035601
28.420000000000616        0.5888102850392167
28.440000000000612        0.5836064527496988
28.46000000000062         0.5656588719669798
28.48000000000061         0.5319965084710635
28.500000000000625        0.48547955496790857
28.520000000000632        0.4330209903490482
28.540000000000642        0.3841604854318997
28.56000000000065         0.3433460406027244
28.580000000000645        0.31072375295321614
28.60000000000065         0.28510185887243206
28.620000000000648        0.2652043365143856
28.640000000000658        0.24998041474153654
28.660000000000654        0.2386332586537186
28.68000000000065         0.23058645411253595
28.70000000000066         0.2254400238260879
28.72000000000067         0.22294736966120823
28.740000000000673        0.2229895995300275
28.76000000000067         0.22556749325894462
28.780000000000665        0.23080156625015516
28.800000000000683        0.23894186511635288
28.82000000000067         0.25038803891219474
28.840000000000682        0.26572019903731336
28.860000000000685        0.2857385535040394
28.880000000000685        0.3114981798483477
28.900000000000684        0.3442804245645715
28.920000000000684        0.3852826139178227
28.94000000000068         0.4343607970011429
28.960000000000676        0.487062158288002
28.98000000000067         0.5339375858179818
29.000000000000668        0.567715967909312
29.020000000000667        0.5857356042667504
29.04000000000066         0.5910277427404294
29.060000000000677        0.5858048984925078
29.08000000000067         0.5677895737424445
29.100000000000676        0.5340015402104703
29.120000000000683        0.4873125311766657
29.140000000000686        0.4346625297155831
29.160000000000696        0.38562549314454125
29.180000000000703        0.34466472520355235
29.200000000000706        0.3119263774016354
29.220000000000706        0.2862148683863182
29.24000000000071         0.26624941091315985
29.260000000000716        0.25097262970502315
29.280000000000715        0.23958613839284731
29.300000000000715        0.23151079208167488
29.320000000000725        0.22634773939348707
29.340000000000728        0.2238478566605043
29.360000000000724        0.2238918294124495
29.38000000000073         0.22648048232503284
29.40000000000073         0.23173483475117088
29.420000000000734        0.23990591924222837
29.440000000000726        0.25139494313502364
29.46000000000073         0.2667842791564317
29.480000000000736        0.2868772574119869
29.500000000000746        0.31272664804992273
29.520000000000735        0.34561114783300495
29.540000000000738        0.386727573702469
29.560000000000738        0.4359672143607736
29.580000000000727        0.48896063978082704
29.600000000000723        0.5360175832716801
29.62000000000072         0.569928655371424
29.64000000000072         0.588020695438904
29.66000000000072         0.5933345957299372
29.680000000000724        0.5880903969599727
29.700000000000724        0.5700025039663449
29.720000000000727        0.5360820631963573
29.740000000000734        0.4892131010384143
29.760000000000744        0.4363647149382022
29.780000000000747        0.38707844480700093
29.800000000000757        0.34600676745530085
29.82000000000077         0.31316920124073705
29.840000000000764        0.2873707451997843
29.860000000000763        0.2673333503944818
29.88000000000077         0.2520020618936205
29.900000000000766        0.24057545164539587
29.920000000000773        0.23247216428587344
29.94000000000078         0.2272918297823437
29.96000000000078         0.22478438443452475
29.980000000000786        0.2248300769360339
30.00000000000078         0.2274297656840086
30.02000000000079         0.23270498531618616
30.040000000000784        0.24090941332443697
30.06000000000079         0.25244327631960634
30.080000000000787        0.2678918566533321
30.10000000000079         0.2880602814822802
30.1200000000008          0.3140082425753726
30.140000000000796        0.3470195720832938
30.160000000000792        0.3882952421363097
30.180000000000792        0.4377266818629857
30.200000000000784        0.4909286097406619
30.220000000000777        0.538173847676198
30.240000000000776        0.5722228791363525
30.26000000000078         0.5903906898446115
30.280000000000776        0.5957282307498958
30.300000000000775        0.5904637796494182
30.320000000000782        0.5723687688493926
30.34000000000079         0.5383867865020397
30.360000000000788        0.4911994540999475
30.38000000000081         0.4380469159342178
30.40000000000081         0.3886611595124269
30.42000000000081         0.3474315231243405
30.440000000000826        0.31446871533671983
30.46000000000082         0.2885727360481303
30.48000000000082         0.26846028712645437
30.50000000000082         0.2530721447397593
30.52000000000083         0.24160367735517213
30.540000000000827        0.2334712095839493
30.560000000000823        0.22827277554293893
30.580000000000833        0.22575732187670441
30.600000000000836        0.22580480280914622
30.620000000000832        0.22841614697379128
30.640000000000835        0.23371328696754093
30.66000000000084         0.24194937209034895
30.680000000000838        0.2535288200851829
30.70000000000084         0.2690383188407291
30.720000000000844        0.2892863296266765
30.740000000000844        0.31533694044819155
30.760000000000854        0.3484793477905127
30.780000000000847        0.3899196623691025
30.800000000000846        0.4395494584623103
30.820000000000842        0.49296703406360404
30.84000000000084         0.5404069803357879
30.86000000000083         0.5745332345428462
30.88000000000083         0.5928436750139023
30.900000000000833        0.5982056267352334
30.92000000000083         0.5929195357735134
30.940000000000843        0.5747467768006741
30.96000000000084         0.5406234476767264
30.98000000000085         0.4932429033274585
31.000000000000856        0.43987707309874924
31.020000000000866        0.3902956677953471
31.04000000000087         0.34890404032594846
31.060000000000873        0.31581272310038283
31.080000000000886        0.2898166337058172
31.100000000000882        0.26962713105415814
31.12000000000088         0.2541806008768813
31.14000000000088         0.24266749484966207
31.160000000000885        0.23450563968178517
31.180000000000884        0.22928909021987015
31.200000000000887        0.22676580932544546
31.220000000000894        0.2268151720178244
31.240000000000897        0.22943816016841212
31.260000000000897        0.23475742255900908
31.280000000000896        0.24302719488657656
31.300000000000903        0.2546536203080222
31.320000000000903        0.2702258859701582
31.34000000000091         0.29055589627515455
31.360000000000916        0.3167122789962892
31.38000000000091         0.3499897582812721
31.4000000000009          0.3915997386682901
31.420000000000897        0.44152607226903823
31.440000000000904        0.49506839742594305
31.460000000000896        0.5425762957653575
31.480000000000903        0.5769898853704293
31.500000000000888        0.595382343460623
31.520000000000888        0.6007701384455016
31.540000000000887        0.5954628259775462
31.560000000000894        0.5772131908833077
31.580000000000886        0.5429459252549009
31.600000000000904        0.49536678129684747
31.62000000000091         0.4417791925388487
31.640000000000917        0.39199338814578955
31.66000000000093         0.35043249235177243
31.680000000000938        0.31721355172855137
31.70000000000093         0.2911057443587032
31.72000000000093         0.2708343153416856
31.740000000000933        0.2553272013202014
31.76000000000094         0.2437715533727309
31.780000000000946        0.23557840026413052
31.800000000000946        0.23034236112637158
31.820000000000945        0.22781034104514317
31.840000000000952        0.22786121685470886
31.86000000000095         0.2304959940865174
31.880000000000948        0.2358378698620451
31.900000000000947        0.24414219829580755
31.920000000000954        0.2558169026138148
31.940000000000946        0.27145375224129376
31.96000000000096         0.291867400380242
31.980000000000967        0.31814014443328753
32.00000000000096         0.35157779445713744
32.02000000000096         0.39340346698159956
32.040000000000944        0.4434733864055016
32.06000000000095         0.49724497389800726
32.080000000000936        0.5449596943473102
32.10000000000094         0.5795253657608151
32.12000000000093         0.5980011083659617
32.140000000000924        0.6034138219096297
32.16000000000093         0.5980818503006029
32.18000000000094         0.579749073735069
32.20000000000094         0.5453302308726923
32.22000000000094         0.49754464308299434
32.240000000000954        0.4438228437064364
32.26000000000096         0.3938047475841847
32.28000000000096         0.35203131773930474
32.30000000000098         0.3186486098593686
32.320000000000974        0.292434554916461
32.34000000000097         0.2720813964157754
32.36000000000097         0.25651239820572985
32.380000000000976        0.24491115328478263
32.40000000000098         0.23668615724367026
32.42000000000098         0.23143032157710844
32.440000000000985        0.2288894932061676
32.46000000000098         0.2289420548320674
32.480000000000985        0.23158904810259473
32.500000000000995        0.23695320824049582
32.52000000000099         0.24529251245585085
32.540000000000994        0.2570162566512428
32.560000000001004        0.27271932714251795
32.58000000000101         0.29322231692010936
32.60000000000099         0.3196072285335411
32.62000000000099         0.35318828124502927
32.640000000000995        0.39519428338217405
32.66000000000099         0.44548155858212324
32.68000000000098         0.4994892680816685
32.70000000000097         0.5474173772576203
32.720000000000965        0.5821402356699548
32.74000000000096         0.6007024726996613
32.76000000000096         0.606141731161167
32.78000000000095         0.6007857306810759
32.80000000000098         0.5823027251655184
32.82000000000097         0.5476549057997244
32.84000000000098         0.49979284764338083
32.860000000000994        0.44584276402875117
32.880000000001           0.3956094296856116
32.90000000000101         0.3536579224922125
32.920000000001004        0.320134230261478
32.94000000000101         0.2938105948496273
32.96000000000101         0.2733733221442647
32.980000000001006        0.25774081044351715
33.000000000001           0.24609295059932487
33.02000000000101         0.23783555876580467
33.04000000000101         0.23255975877905022
33.06000000000102         0.2300104947372785
33.080000000001036        0.23006492986886823
33.10000000000102         0.23272465278351268
33.12000000000102         0.23811397210551183
33.140000000001024        0.24649057789172243
33.16000000000102         0.2582662349981949
33.18000000000102         0.2740386032524409
33.20000000000102         0.2946321038085444
33.22000000000102         0.3211337980469133
33.24000000000101         0.3548640843046397
33.26000000000103         0.39705769756561604
33.280000000001024        0.44757107962576187
33.30000000000101         0.5018244379959309
33.320000000001016        0.549974622278075
33.340000000001           0.5849276026880201
33.360000000000994        0.6035144607863168
33.380000000001004        0.6089811449069711
33.40000000000099         0.6036003616580901
33.42000000000099         0.5850323864403468
33.440000000001014        0.5502249530364263
33.46000000000102         0.5021442069755903
33.48000000000102         0.4479503512300564
33.50000000000103         0.39749230485314024
33.52000000000103         0.35535495442483694
33.540000000001044        0.32168430938381326
33.56000000000105         0.2952466071846333
33.58000000000105         0.2747218943567879
33.600000000001046        0.259025758823038
33.62000000000106         0.24732899676499648
33.640000000001045        0.23903757810100085
33.66000000000105         0.23374080049123094
33.68000000000106         0.2311822553800898
33.700000000001054        0.231239249252086
33.72000000000108         0.23391285445334475
33.74000000000105         0.23932800842377241
33.76000000000106         0.24774366215112362
33.78000000000106         0.25957357863391944
33.80000000000107         0.2754183120084793
33.82000000000106         0.2961062777514487
33.84000000000106         0.32272981457779454
33.860000000001065        0.35661576590552796
33.88000000000106         0.3989362939230878
33.90000000000107         0.4496606036615196
33.92000000000105         0.5042696460061655
33.94000000000104         0.5527878749297167
33.960000000001024        0.587770770682672
33.98000000000103         0.6064517070282945
34.00000000000102         0.6119473019376185
34.020000000001026        0.6065400455226618
34.040000000001044        0.5878801787117639
34.06000000000105         0.5529041831196007
34.08000000000106         0.5045940603446585
34.10000000000105         0.4501467813701544
34.12000000000106         0.3994561105177019
34.14000000000107         0.35712650284209363
34.16000000000107         0.32329717317736417
34.18000000000107         0.29674885335082196
34.200000000001076        0.2761353195901377
34.22000000000109         0.26036846827484783
34.24000000000108         0.2486218274043723
34.26000000000108         0.2402959815157004
34.280000000001074        0.2349782291862559
34.30000000000109         0.23241094480361418
34.32000000000109         0.23247090989398972
34.340000000001076        0.23515927084667979
34.36000000000109         0.24060163333386042
34.38000000000109         0.24905827198438224
34.4000000000011          0.2609450407874773
34.42000000000109         0.2768680340082717
34.44000000000109         0.29765312511736725
34.46000000000109         0.3243965851563062
34.48000000000109         0.3584240193424945
34.5000000000011          0.40097646794316766
34.5200000000011          0.4519470784372129
34.54000000000109         0.5068248560788545
34.56000000000108         0.5555874717616018
34.58000000000109         0.590750387785663
34.60000000000107         0.6095309276814224
34.62000000000107         0.6150575122755674
34.640000000001066        0.6096229128577119
34.66000000000107         0.5908670390216199
34.68000000000108         0.5557146344069567
34.70000000000109         0.5071699393032632
34.72000000000111         0.45235731635129633
34.74000000000111         0.40144817555221746
34.76000000000111         0.35895869856115686
34.78000000000111         0.3249981476805078
34.800000000001106        0.2983264194174888
34.820000000001116        0.277618332760484
34.84000000000112         0.26178027599717346
34.86000000000111         0.2499816213398728
34.880000000001125        0.24161995861680993
34.90000000000113         0.23628052159524748
34.92000000000112         0.23370438253459552
34.94000000000113         0.23376774227743172
34.960000000001116        0.2364718361691474
34.980000000001134        0.24194404306690834
35.00000000000113         0.2504445543589927