% Model:              Untitled.mph
% Version:            COMSOL 5.6.0.280
% Date:               Sep 24 2021, 10:16
% Dimension:          1
% Nodes:              994
% Expressions:        1
% Description:        线图
% cln1x                   Height
49.25                     0.29890121754117926
49.260000000000076        0.29768567345010055
49.28000000000008         0.29773324077350904
49.300000000000104        0.30117314960756264
49.32000000000011         0.30825767455006386
49.340000000000096        0.3194268625167145
49.36000000000012         0.33534479590105315
49.38000000000012         0.35694729611551307
49.40000000000012         0.38548354936900614
49.42000000000013         0.4224786771473171
49.440000000000154        0.46937789105631617
49.46000000000015         0.5262532306145287
49.480000000000146        0.5878566201851883
49.50000000000016         0.6430795587272616
49.52000000000017         0.6833587101268225
49.540000000000184        0.7050451688449264
49.56000000000018         0.711299992680328
49.58000000000018         0.7046564194448389
49.600000000000186        0.6825284574721803
49.62000000000019         0.6415890064111656
49.64000000000019         0.5851883487528633
49.66000000000021         0.5221337825827185
49.680000000000234        0.46373468406245066
49.70000000000021         0.41499546115917985
49.720000000000226        0.3759913358642316
49.74000000000024         0.3452896598677344
49.76000000000023         0.3213673742156532
49.780000000000236        0.3029697999047001
49.800000000000246        0.28913842105000276
49.82000000000026         0.27917683434677043
49.840000000000266        0.27260327009890384
49.86000000000027         0.2691135309617402
49.88000000000028         0.2685567815669158
49.90000000000028         0.27092361393548064
49.920000000000314        0.27634575215233326
49.9400000000003          0.28510747813164133
49.96000000000031         0.2976678593624732
49.9800000000003          0.31469224818319325
50.00000000000031         0.3371000000547603
50.02000000000032         0.3661207804772709
50.040000000000326        0.4032422355098014
50.06000000000035         0.4498678462079909
50.08000000000034         0.505888130281095
50.10000000000035         0.5662981113226189
50.12000000000035         0.6201781152569372
50.140000000000356        0.6593468220601154
50.16000000000036         0.6803687774858111
50.18000000000037         0.6864653636777514
50.20000000000038         0.6801783544830478
50.220000000000375        0.6590021989876904
50.240000000000364        0.619621487324066
50.260000000000396        0.5652231581597338
50.28000000000039         0.5043533887077377
50.30000000000041         0.4477969817088239
50.3200000000004          0.4005786257859028
50.34000000000042         0.36282478302448873
50.36000000000043         0.3331427110051448
50.380000000000436        0.3100483174568069
50.40000000000044         0.2923197533656944
50.42000000000046         0.27902977983280075
50.44000000000047         0.2695054186500677
50.46000000000046         0.263281951731012
50.48000000000047         0.26006702619661826
50.500000000000476        0.25971722324016716
50.520000000000486        0.262226501358696
50.54000000000049         0.2677258351133109
50.5600000000005          0.2764922581632049
50.58000000000052         0.28897769892716113
50.60000000000052         0.3058357403086139
50.620000000000516        0.32797163657400963
50.640000000000526        0.35658098154296874
50.66000000000053         0.39311841495287203
50.68000000000056         0.4389510405826744
50.70000000000054         0.493954937174558
50.720000000000546        0.5531897779360595
50.74000000000055         0.6059303833719778
50.760000000000545        0.6442178465010238
50.78000000000055         0.6647257046245075
50.800000000000544        0.6706712255397974
50.820000000000555        0.6645685815614605
50.84000000000056         0.6438841595562936
50.86000000000058         0.6053838621710426
50.88000000000057         0.552386076841102
50.90000000000059         0.4928404783080048
50.92000000000061         0.4374790595248787
50.9400000000006          0.3912548397166192
50.96000000000063         0.3543010615561489
50.98000000000063         0.3252560710393991
51.000000000000625        0.3026677421027983
51.02000000000064         0.2853407297017733
51.04000000000065         0.27236817442332445
51.06000000000067         0.26309215660543506
51.080000000000666        0.25705867592668596
51.10000000000067         0.25398275795297076
51.12000000000068         0.25372436835187084
51.14000000000068         0.2562794940996654
51.16000000000069         0.26177790678973656
51.180000000000696        0.2704944596996357
51.20000000000071         0.28287134121311874
51.2200000000007          0.2995524850946005
51.24000000000072         0.3214278450249637
51.260000000000716        0.3496723773642286
51.280000000000726        0.3857149972057
51.30000000000074         0.43089664069663575
51.32000000000074         0.485085390297764
51.34000000000075         0.5433968960763838
51.36000000000074         0.5952601705006966
51.38000000000074         0.6329500884446132
51.40000000000074         0.6530027675514511
51.42000000000074         0.6588326149242006
51.44000000000075         0.6528592849002454
51.46000000000077         0.6325816788410797
51.48000000000077         0.5947874966420323
51.500000000000774        0.542723403655331
51.52000000000079         0.4841800502626974
51.54000000000081         0.4297301876425252
51.5600000000008          0.38426420049868126
51.58000000000082         0.3479190152645849
51.600000000000826        0.3193567935418531
51.62000000000083         0.29715000082058235
51.64000000000084         0.28012359499352746
51.660000000000835        0.26738802416464447
51.68000000000086         0.25829262070913833
51.70000000000086         0.25239402108379083
51.72000000000088         0.24941237628354085
51.74000000000087         0.24921142490638745
51.760000000000886        0.25178749886328067
51.780000000000896        0.2572693084098363
51.8000000000009          0.26592850004831636
51.82000000000092         0.2782016059049072
51.840000000000906        0.29472395960050296
51.86000000000092         0.31637333911426885
51.88000000000091         0.34430835056737613
51.90000000000093         0.3799376159113791
51.920000000000925        0.42450939957837586
51.940000000000936        0.4780047705910509
51.96000000000094         0.5356726117399183
51.980000000000935        0.5869786657432376
52.00000000000094         0.6239901204337714
52.020000000000934        0.6437425720557655
52.04000000000095         0.6494816154697319
52.06000000000094         0.6436029213965677
52.08000000000094         0.6236337558681132
52.100000000000975        0.5863874532203115
52.12000000000097         0.5350569931987373
52.14000000000098         0.4773130668606732
52.160000000001           0.4235951309727059
52.180000000001016        0.3787380066559311
52.20000000000103         0.34287353096521633
52.22000000000103         0.3147047646888573
52.24000000000105         0.2928033589509681
52.26000000000104         0.2760147351297369
52.28000000000106         0.2634616177890114
52.30000000000106         0.2545071632554995
52.320000000001066        0.24871200828831774
52.34000000000109         0.2458005460008091
52.36000000000108         0.24563888558254518
52.380000000001104        0.24822404087743574
52.4000000000011          0.25368375600203724
52.420000000001096        0.2622869655395734
52.440000000001135        0.27446549392585745
52.460000000001116        0.2908475475538575
52.48000000000113         0.3123017101769328
52.50000000000114         0.33996359000904347
52.52000000000114         0.37521942145302045
52.54000000000114         0.4193665005295435
52.560000000001146        0.4723025365162752
52.58000000000115         0.5293482579383403
52.60000000000112         0.5800780354528635
52.62000000000113         0.6166603362109272
52.640000000001116        0.6361743713654775
52.66000000000112         0.6418449917647967
52.680000000001115        0.6360477227386039
52.70000000000113         0.616334272328109
52.72000000000115         0.5795389065390378
52.74000000000117         0.528815779088013
52.760000000001185        0.4716236405720051
52.780000000001195        0.4185306184043246
52.800000000001205        0.3742145982514233
52.820000000001215        0.3387784567171816
52.840000000001226        0.31092579500300915
52.86000000000124         0.289273444613264
52.880000000001225        0.2726800888555092
52.90000000000124         0.2602785828863878
52.92000000000125         0.25143952159208277
52.94000000000125         0.24572878735443973
52.96000000000128         0.24287422085090093
52.98000000000127         0.24274384968561724
53.00000000000128         0.24533522294326374
53.020000000001296        0.25077635153763506
53.0400000000013          0.25933237376324697
53.0600000000013          0.27143171298822566
53.08000000000131         0.287696231478325
53.10000000000133         0.30898379589872843
53.120000000001326        0.33642434102612845
53.14000000000133         0.37138771853705566
53.160000000001325        0.41515763360324665
53.180000000001336        0.4676296944843067
53.200000000001324        0.5241618041690286
53.22000000000133         0.5744199059089719
53.240000000001324        0.6106534371540591
53.26000000000131         0.6299759172581791
53.28000000000132         0.6355922335263224
53.30000000000133         0.6298612320599241
53.320000000001336        0.6104219727486648
53.34000000000135         0.5740696499983341
53.360000000001364        0.5236932242302239
53.38000000000139         0.4670399697823426
53.400000000001405        0.4144402841180697
53.4200000000014          0.3705346989165143
53.44000000000142         0.3354272887786571
53.46000000000144         0.3078344768533001
53.480000000001446        0.2863864158203941
53.50000000000144         0.2699527665341991
53.52000000000145         0.2576747524344911
53.540000000001456        0.24892908198108962
53.560000000001466        0.24328535597478698
53.58000000000148         0.2404758014358319
53.60000000000148         0.24036899303698545
53.62000000000148         0.24296296551639993
53.64000000000149         0.24838400150037326
53.660000000001496        0.25689691129593506
53.68000000000151         0.26892627672593467
53.70000000000152         0.2850890803709018
53.720000000001534        0.30623631862343376
53.74000000000153         0.3334887182720473
53.76000000000153         0.36820478301135107
53.780000000001536        0.4116570640679078
53.80000000000154         0.4637394498005821
53.82000000000152         0.51984018697274
53.84000000000152         0.5695555171426416
53.860000000001506        0.6055706274900543
53.88000000000151         0.6247977874687537
53.90000000000152         0.6303664087355931
53.920000000001515        0.6246855903394999
53.940000000001525        0.605412227039058
53.96000000000154         0.5693613351141823
53.98000000000157         0.5193950449410097
54.0000000000016          0.463194636137323
54.020000000001595        0.41101133958197544
54.040000000001605        0.36745205363170835
54.060000000001615        0.3326214796545251
54.080000000001625        0.30524695599364904
54.10000000000164         0.2839699855023804
54.12000000000164         0.2676672073460311
54.140000000001656        0.25549230767568615
54.16000000000165         0.24682413967358904
54.18000000000166         0.24123639996097232
54.200000000001666        0.2384621191152152
54.22000000000167         0.23837223266163912
54.240000000001686        0.24096508989304616
54.26000000000169         0.24636632796963873
54.28000000000169         0.25483908814359924
54.300000000001695        0.26680511374140764
54.320000000001706        0.2828771485245873
54.34000000000174         0.3039002451273629
54.360000000001726        0.33098718206163225
54.38000000000173         0.3655149344233227
54.40000000000174         0.4087318907216493
54.420000000001735        0.4605007746468358
54.44000000000173         0.5161271411738558
54.46000000000172         0.5655081538570298
54.480000000001716        0.6012727253327591
54.50000000000171         0.6203631475622832
54.52000000000174         0.6258936444018823
54.54000000000171         0.6202597653333511
54.56000000000173         0.6011332141396895
54.58000000000176         0.565344314166583
54.600000000001764        0.5157314684663922
54.6200000000018          0.45991717067260773
54.640000000001805        0.40808719584943437
54.660000000001816        0.3648498124651518
54.680000000001826        0.3302325986456114
54.700000000001836        0.3030357112398276
54.72000000000187         0.28190207434744996
54.74000000000185         0.2657145784178982
54.76000000000187         0.2536260349374534
54.78000000000186         0.24502225118351284
54.80000000000187         0.23947999353759594
54.820000000001876        0.2367342561334278
54.84000000000188         0.23665699927188696
54.8600000000019          0.23924678887377657
54.880000000001885        0.24462867228424
54.9000000000019          0.2530643206942251
54.92000000000191         0.2649729960623622
54.940000000001916        0.28096119245763207
54.960000000001905        0.30187561617843656
54.98000000000192         0.32882375876132725
55.00000000000195         0.36315391799712354
55.020000000001936        0.40612722169371995
55.04000000000193         0.45759886527908145
55.06000000000194         0.512898640466254
55.080000000001924        0.5619811689923723
55.100000000001906        0.5975248586413109
55.12000000000191         0.6164936072794923
55.14000000000191         0.6219884832211441
55.16000000000192         0.616392371724495
55.18000000000193         0.5973896590983486
55.20000000000194         0.5616825057892387
55.220000000001974        0.5125139528742114
55.24000000000201         0.4571383585381712
55.260000000002           0.40559375177646534
55.280000000002026        0.3625445317928532
55.30000000000204         0.3281332562081202
55.32000000000203         0.30109813714931466
55.340000000002064        0.2800906138256902
55.36000000000205         0.26400055242811393
55.38000000000207         0.2519860550878389
55.40000000000208         0.24343678227904453
55.420000000002084        0.23793219236760368
55.440000000002094        0.23520901744480147
55.4600000000021          0.2351401070860657
55.48000000000212         0.23772356036454836
55.50000000000212         0.24308449312606747
55.52000000000212         0.2514829956348251
55.54000000000213         0.26333614771400704
55.560000000002134        0.27925009178302646
55.580000000002165        0.3000614901151718
55.600000000002154        0.3268739001139594
55.620000000002165        0.3610279152351005
55.640000000002146        0.40377717805936486
55.66000000000215         0.4549764158754844
55.68000000000214         0.5099782794097769
55.70000000000213         0.5587903565471515
55.7200000000021          0.5941349126466984
55.7400000000021          0.6129949657572621
55.76000000000211         0.6184585877773716
55.78000000000212         0.6128963832696683
55.80000000000213         0.5939393328917428
55.82000000000214         0.5585037763134393
55.84000000000217         0.5096113760477305
55.8600000000022          0.4545407249434425
55.88000000000221         0.4032766324863057
55.90000000000223         0.3604602796512268
55.92000000000224         0.32623447847810405
55.94000000000226         0.2993448256362091
55.96000000000227         0.27845044226427695
55.98000000000226         0.2624474851940896
56.00000000000228         0.2504988226483997
56.0200000000023          0.24199862988580606
56.040000000002294        0.23652618086730037
56.0600000000023          0.23382138994131635
56.08000000000231         0.23375785256581733
56.100000000002325        0.23633427300596963
56.120000000002314        0.24167441990060123
56.14000000000232         0.2500372508685262
56.160000000002334        0.26183771381258236
56.180000000002345        0.2776788089065413
56.20000000000236         0.29839281362384273
56.220000000002344        0.32507745267576404
56.24000000000236         0.3590661652054126
56.26000000000237         0.40160569220579684
56.280000000002346        0.4525505071256009
56.30000000000235         0.507280556570372
56.32000000000233         0.5559790830965985
56.34000000000233         0.5910645185875677
56.36000000000231         0.609758333514665
56.38000000000231         0.615193426067545
56.40000000000232         0.609664900660993
56.420000000002354        0.5908140811994482
56.44000000000235         0.5555686994561649
56.460000000002374        0.5069325711976256
56.480000000002406        0.45214284872802213
56.50000000000242         0.40113620806693817
56.52000000000245         0.35853333216461386
56.54000000000246         0.32447742995257867
56.56000000000247         0.2977208408763744
56.580000000002485        0.2769322083975378
56.60000000000248         0.26100818634241923
56.620000000002484        0.2491183014678311
56.640000000002495        0.24065929736426664
56.660000000002505        0.23521531645204957
56.68000000000251         0.23252599579473907
56.700000000002525        0.23246563839004933
56.720000000002536        0.23503302810217128
56.74000000000253         0.2403513469286804
56.760000000002535        0.24867824613511536
56.780000000002545        0.260426607050487
56.80000000000255         0.27619643439982106
56.82000000000256         0.29681584743063605
56.84000000000255         0.3233704361434465
56.86000000000257         0.357178960184457
56.880000000002575        0.39947617817200665
56.900000000002564        0.45015255678411603
56.920000000002545        0.5047112306536415
56.940000000002534        0.5531687098890609
56.960000000002516        0.5880776635782684
56.98000000000251         0.6066754498424878
57.000000000002515        0.6120829521034948
57.020000000002526        0.6065851572838388
57.04000000000255         0.5878339006972771
57.06000000000255         0.5527684815922191
57.080000000002585        0.5043759225496186
57.10000000000261         0.4498546868423591
57.120000000002634        0.39902598535922235
57.140000000002665        0.35666885290703526
57.16000000000267         0.32279689708215775
57.18000000000268         0.29617523981433763
57.20000000000272         0.27548467086537026
57.2200000000027          0.25963646704028004
57.2400000000027          0.24780349370338375
57.26000000000271         0.23938552239307512
57.280000000002715        0.2339687897169092
57.300000000002726        0.2312942591439508
57.32000000000274         0.2312369043632062
57.34000000000275         0.23379558537582396
57.36000000000275         0.23909296158039578
57.38000000000276         0.24738546980244552
57.40000000000276         0.25908629226665963
57.42000000000277         0.2747881741106678
57.44000000000279         0.29531546748142967
57.460000000002786        0.3217512758690399
57.48000000000279         0.355407948470012
57.50000000000279         0.39751326473457005
57.520000000002774        0.4479573596587275
57.54000000000276         0.5022623614480445
57.56000000000274         0.5504897405295782
57.58000000000272         0.5852301412706157
57.6000000000027          0.6037360359082369
57.62000000000271         0.6091168177105823
57.64000000000271         0.603647679877478
57.660000000002725        0.5850569324590918
57.68000000000275         0.5502370297877262
57.70000000000278         0.5019410288299734
57.72000000000283         0.4475773657900842
57.74000000000284         0.39707830112013126
57.76000000000286         0.35491686820751983
57.780000000002886        0.3212006451622985
57.80000000000288         0.2947009192927396
57.82000000000291         0.27410490413838745
57.8400000000029          0.2583291472863777
57.86000000000291         0.2465505091166194
57.88000000000292         0.23817165867866086
57.900000000002926        0.23278083451601783
57.920000000002936        0.2301202649660984
57.94000000000295         0.23006573940675462
57.96000000000296         0.23261619687162172
57.98000000000296         0.237893679624834
58.00000000000297         0.24615351859389778
58.02000000000297         0.2578046021734833
58.040000000002976        0.2734408070742275
58.060000000003           0.29388099433212184
58.080000000003           0.320203213486151
58.10000000000301         0.3537136413965671
58.120000000002996        0.3956341334972646
58.14000000000299         0.445854632531334
58.160000000002974        0.4999161259452672
58.18000000000294         0.5479239203015839
58.200000000002916        0.5825042197633928
58.22000000000291         0.6009228101158124
58.24000000000291         0.6062797533431885
58.26000000000292         0.6008390281406591
58.28000000000293         0.5823371080725729
58.300000000002946        0.547680325222114
58.32000000000298         0.4996066966290763
58.340000000003016        0.4454889117506064
58.360000000003055        0.3952157756272811
58.380000000003065        0.35324173995579394
58.40000000000307         0.3196746192702091
58.4200000000031          0.293291599682523
58.440000000003096        0.27278604390431427
58.46000000000312         0.2570795446161238
58.48000000000312         0.24535114923590307
58.500000000003126        0.2370101741370592
58.520000000003144        0.231644411128472
58.54000000000313         0.22899732488814448
58.56000000000315         0.2289451846289607
58.58000000000317         0.2314870219261075
58.60000000000317         0.23674455072293557
58.62000000000316         0.2449720207789976
58.64000000000318         0.25657653901706645
58.66000000000319         0.27214931603007725
58.68000000000319         0.29250553302859705
58.7000000000032          0.31871841444437427
58.72000000000321         0.35208826746474586
58.74000000000321         0.3938313182249135
58.76000000000319         0.4439299594633512
58.78000000000318         0.49765882127213856
58.80000000000315         0.5453197014956137
58.820000000003134        0.5798190157255105
58.840000000003116        0.5982193801174183
58.86000000000312         0.6035518824036609
58.88000000000313         0.5981377000319213
58.900000000003125        0.579722285378502
58.920000000003164        0.5452227539482293
58.94000000000318         0.4973632736474382
58.960000000003234        0.44348184993496825
58.980000000003244        0.39342571437269613
59.00000000000329         0.3516316451883057
59.020000000003286        0.31820770861556186
59.0400000000033          0.2919359221242508
59.06000000000332         0.2715155104111545
59.08000000000331         0.25587560922441804
59.100000000003334        0.24419911937152997
59.12000000000334         0.23589368506210423
59.14000000000335         0.23055120161088755
59.16000000000335         0.22791628610881892
59.18000000000335         0.22786577499059563
59.20000000000338         0.23039872972945313
59.220000000003374        0.23563636201259164
59.24000000000338         0.24383185240104202
59.260000000003394        0.2553905837320113
59.2800000000034          0.27090120907817555
59.30000000000341         0.2911745037046586
59.3200000000034          0.31728794096552115
59.34000000000343         0.35054144155585976
59.36000000000342         0.3921519619430389
59.38000000000341         0.4419733133759801
59.40000000000338         0.49547488094227154
59.42000000000336         0.542930791911465
59.440000000003344        0.5772799215926615
59.46000000000334         0.5955988186958223
59.48000000000332         0.6009080261241044
59.50000000000333         0.5955195927212797
59.52000000000334         0.5771877987791858
59.54000000000337         0.5428404809136861
59.5600000000034          0.49518851847783074
59.58000000000344         0.44162861705604384
59.60000000000346         0.3917588887309867
59.620000000003486        0.35009932235799646
59.6400000000035          0.3167938039161247
59.66000000000351         0.2906244547431358
59.680000000003524        0.270288449090076
59.700000000003534        0.25471311125257934
59.72000000000355         0.24308490484422868
59.74000000000354         0.23481405414505202
59.76000000000355         0.22949423303023211
59.78000000000356         0.22687117630198328
59.800000000003564        0.22682226927957902
59.82000000000359         0.22934659914670427
59.84000000000358         0.23456488285568572
59.86000000000359         0.24272761390977848
59.880000000003584        0.25424112837745105
59.9000000000036          0.2696910250883427
59.92000000000361         0.28988686060889174
59.94000000000363         0.31589631056418666
59.96000000000364         0.34901613348089777
59.98000000000362         0.39045791471787283
60.00000000000362         0.440075554004254
60.02000000000359         0.4933563764176469
60.04000000000357         0.5406143953858412
60.06000000000351         0.5748191949858368
60.08000000000354         0.5930605824233703
60.10000000000353         0.5983481641791485
60.12000000000353         0.5929843385512704
60.140000000003546        0.5746690666386451
60.16000000000356         0.5403955360656838
60.1800000000036          0.4930777696143998
60.20000000000364         0.4397456365820224
60.22000000000367         0.3900803340802589
60.2400000000037          0.34859043994812394
60.26000000000371         0.31541990312577056
60.280000000003724        0.28935617601158836
60.30000000000373         0.2691020003618416
60.32000000000374         0.2535892598391058
60.34000000000376         0.24200786892805448
60.360000000003765        0.23377055353427723
60.38000000000377         0.22847271294901927
60.40000000000377         0.2258613360379682
60.42000000000378         0.2258136600939591
60.4400000000038          0.22832928574732175
60.46000000000379         0.23352839820404575
60.4800000000038          0.24166208684500673
60.50000000000381         0.25313250871132276
60.52000000000382         0.26852393789369317
60.540000000003815        0.2886426479390871
60.56000000000383         0.31455191500600826
60.58000000000384         0.347543135348165
60.60000000000383         0.3888227940633011
60.62000000000383         0.4382447030302289
60.6400000000038          0.4913124543013093
60.66000000000378         0.538377441938948
60.68000000000374         0.5725057532467159
60.70000000000374         0.5906048493964918
60.72000000000373         0.5958689132692931
60.74000000000373         0.5905286882293067
60.76000000000374         0.572291579715778
60.78000000000378         0.5381608003577923
60.80000000000381         0.4910372919393546
60.82000000000385         0.4379207268822865
60.84000000000388         0.38845421115685647
60.86000000000391         0.3471294082187492
60.880000000003925        0.3140902720751188
60.900000000003935        0.28812942799504127
60.920000000003945        0.2679550224542921
60.940000000003955        0.25250559462535405
60.96000000000397         0.24096930693373952
60.980000000003976        0.2327642096822197
61.00000000000398         0.22748747609083741
61.02000000000399         0.22488695941504744
61.040000000004014        0.22484104246540693
61.06000000000401         0.22734880795673923
61.080000000004006        0.23252998493982557
61.100000000004016        0.24063468139854677
61.12000000000401         0.2520634695454953
61.140000000004044        0.26739831795396773
61.16000000000405         0.28744231605210735
61.18000000000404         0.31325449346093526
61.20000000000406         0.3461210156878502
61.22000000000405         0.3871763023079068
61.24000000000403         0.43638420902047387
61.260000000004           0.4893430263725543
61.28000000000398         0.5363550554478504
61.30000000000395         0.5702087659559224
61.32000000000393         0.5882345338341628
61.34000000000392         0.5934773958792149
61.36000000000393         0.5881598038848015
61.380000000003946        0.5699974898265138
61.40000000000398         0.5360038810226188
61.42000000000402         0.4890675081969718
61.440000000004055        0.4361593306388773
61.46000000000409         0.38688528537228556
61.48000000000412         0.34572035892597835
61.50000000000413         0.31280202497086623
61.52000000000415         0.28694801609178816
61.54000000000415         0.26685246239547983
61.56000000000416         0.25145970849601507
61.580000000004176        0.2399676859885558
61.60000000000417         0.2317943483219084
61.62000000000419         0.2265384938583662
61.640000000004186        0.22394901163104905
61.6600000000042          0.22390480044931552
61.68000000000422         0.22640497501120124
61.70000000000422         0.2315688230964765
61.72000000000422         0.2396455046394078
61.74000000000422         0.25103405964209125
61.76000000000424         0.26631666395701437
61.78000000000424         0.28628680647598287
61.80000000000425         0.31199793015761523
61.82000000000427         0.34472348587271595
61.84000000000425         0.38565407439859534
61.86000000000425         0.4346788041987481
61.88000000000421         0.4874384498662541
61.900000000004184        0.5342710882799943
61.92000000000415         0.5679942050731742
61.940000000004154        0.5859494992079638
61.960000000004136        0.5911722069950689
61.98000000000414         0.5858768535606219
62.00000000000414         0.5677872114381125
62.02000000000418         0.5339263417640728
62.04000000000423         0.4871766462192657
62.06000000000426         0.43437277687684533
62.08000000000429         0.38530813631475513
62.100000000004336        0.3443370520185446
62.12000000000433         0.31156826213419875
62.140000000004356        0.2858103015073435
62.16000000000435         0.2657892588533026
62.18000000000436         0.2504535866227354
62.20000000000439         0.23900433281454128
62.22000000000437         0.23086170979264772
62.24000000000437         0.22562607302850118
62.2600000000044          0.22304729672501966
62.2800000000044          0.22300478320390615
62.300000000004424        0.22549769216832302
62.320000000004406        0.2306459123189676
62.34000000000444         0.23869623165830328