% Model:              Untitled.mph
% Version:            COMSOL 5.6.0.280
% Date:               Sep 24 2021, 10:11
% Dimension:          1
% Nodes:              1015
% Expressions:        1
% Description:        线图
% cln1x                   Height
49.2                      0.33203862612002627
49.21999999999993         0.33161024599555866
49.239999999999924        0.3363461483335923
49.25999999999991         0.34662435664359814
49.27999999999991         0.3631544418111096
49.2999999999999          0.3870054393382101
49.319999999999894        0.41956817184744927
49.33999999999989         0.4622103403550378
49.35999999999989         0.5148953864485563
49.379999999999875        0.5728135919610654
49.399999999999885        0.6249985257450754
49.41999999999987         0.662911480850282
49.439999999999856        0.6831994256965639
49.459999999999845        0.6890272474796498
49.47999999999983         0.6827755633574784
49.49999999999984         0.6619215876253176
49.519999999999825        0.6231871993865016
49.53999999999982         0.5698385280231105
49.55999999999982         0.510379685810535
49.57999999999979         0.4558247755634894
49.5999999999998          0.41105135971995793
49.61999999999979         0.37614107709841044
49.63999999999978         0.34974211339631806
49.65999999999978         0.33045464142393405
49.67999999999978         0.3171800989468939
49.69999999999978         0.30916124695520203
49.71999999999976         0.3059544905898206
49.73999999999975         0.30740274755297853
49.759999999999735        0.3136221996349786
49.77999999999974         0.32501333394561643
49.799999999999734        0.34228682040461267
49.819999999999716        0.366490297920025
49.83999999999971         0.39897100853832906
49.85999999999971         0.44104031166021035
49.8799999999997          0.4926339288641522
49.89999999999969         0.5490521185320048
49.91999999999969         0.5996738362929629
49.939999999999685        0.6363521997875251
49.959999999999695        0.6559428201226957
49.97999999999967         0.6616069888449169
49.99999999999967         0.6557039441161665
50.01999999999966         0.6358190971639313
50.03999999999965         0.5987384528108122
50.05999999999965         0.5475735170291635
50.07999999999963         0.49045442692411284
50.09999999999962         0.4380273165703117
50.11999999999962         0.39502609747909606
50.13999999999961         0.3615382514522801
50.159999999999606        0.33626323818198417
50.1799999999996          0.31785436750615137
50.19999999999959         0.30525613339035756
50.21999999999959         0.2977426333823457
50.239999999999576        0.29489080802424633
50.259999999999586        0.29655358499075535
50.27999999999955         0.30285124088063525
50.29999999999957         0.3141742208269914
50.31999999999955         0.3312165266655114
50.33999999999955         0.3549974983591157
50.359999999999545        0.3868258073802515
50.379999999999534        0.4279717503044536
50.39999999999952         0.4783594802889471
50.41999999999952         0.5333870985743977
50.43999999999951         0.5826933053312786
50.459999999999496        0.6183810786260098
50.479999999999514        0.6374197935784273
50.499999999999496        0.6429275888711368
50.51999999999951         0.637220810945764
50.53999999999949         0.6178810145873377
50.55999999999949         0.581957683151496
50.579999999999465        0.5322606268335107
50.59999999999947         0.4767424075899753
50.61999999999946         0.4257779371592846
50.63999999999944         0.3839891462525627
50.659999999999435        0.35146570163056773
50.67999999999942         0.32694353198519
50.699999999999406        0.30911359337941857
50.71999999999941         0.29695053726312354
50.73999999999941         0.2897500827203875
50.759999999999394        0.2871029860713886
50.77999999999939         0.2888689778029534
50.799999999999386        0.2951667640096444
50.81999999999938         0.30638319627210103
50.83999999999938         0.32320022984638747
50.859999999999374        0.3466103738833236
50.879999999999356        0.3778955771824437
50.89999999999936         0.41829591389855114
50.91999999999935         0.4677293653560988
50.939999999999344        0.5216745111711723
50.959999999999354        0.5699731459265177
50.97999999999935         0.6049110558094811
50.99999999999935         0.6235374675457103
51.01999999999934         0.6289281807813423
51.03999999999933         0.6233623420824121
51.05999999999933         0.6044716468562782
51.07999999999932         0.5692165959721801
51.09999999999929         0.5207518968804462
51.119999999999294        0.46643604771198305
51.139999999999276        0.4165718743601177
51.15999999999928         0.37569277689495767
51.17999999999926         0.34388926536795716
51.19999999999925         0.3199248722442074
51.219999999999224        0.30251904252687306
51.23999999999922         0.2906691305680035
51.25999999999921         0.283686993554869
51.27999999999921         0.28117352775235943
51.29999999999921         0.28299320641927767
51.3199999999992          0.28926437008740247
51.33999999999919         0.3003682979978648
51.35999999999918         0.31697443910427303
51.37999999999918         0.3400618080580961
51.399999999999174        0.37088553961963044
51.41999999999919         0.4106634011388247
51.43999999999917         0.4593099422405383
51.45999999999917         0.5123715077455578
51.479999999999166        0.5598557316056406
51.49999999999916         0.5941917808464442
51.51999999999916         0.6124898254735024
51.53999999999914         0.6177872490032829
51.55999999999914         0.6123311614171453
51.57999999999914         0.5937935471641808
51.59999999999913         0.5591782801836274
51.61999999999912         0.5115765143404606
51.639999999999105        0.45831183245427254
51.65999999999908         0.40923697880129906
51.679999999999076        0.36908239534996945
51.69999999999906         0.33785050712319925
51.71999999999908         0.3143268423412845
51.73999999999906         0.29725355792198616
51.75999999999906         0.2856460501694613
51.779999999999056        0.2788289267876306
51.799999999999045        0.27641099733274593
51.819999999999034        0.2782602883456913
51.83999999999902         0.2844945585265648
51.85999999999902         0.29549027853069043
51.879999999999015        0.31190748292719517
51.899999999999           0.3347156421798788
51.919999999999           0.36513644386878386
51.939999999999           0.40438298737775386
51.959999999998985        0.4523629842968201
51.97999999999898         0.5046808126572004
51.99999999999898         0.5514835213874316
52.019999999998994        0.5853180158550211
52.03999999999898         0.603343639466462
52.05999999999898         0.6085637136967571
52.079999999998975        0.6031976614968491
52.099999999998964        0.5849510043963345
52.11999999999895         0.5508647928716066
52.139999999998935        0.5039815553794275
52.15999999999893         0.4515115242603815
52.17999999999892         0.4032295829600443
52.199999999998894        0.36361527019836815
52.21999999999888         0.33285832814069966
52.23999999999888         0.3097004286687901
52.25999999999886         0.29290252762885427
52.27999999999887         0.2814949494816783
52.29999999999886         0.27481283838174064
52.31999999999887         0.27247152398057106
52.33999999999885         0.2743419305380493
52.35999999999885         0.2805412778138159
52.37999999999884         0.29144198975267066
52.39999999999883         0.3076962332850377
52.41999999999882         0.33026143152741727
52.43999999999881         0.3603669812723112
52.45999999999881         0.3992010377612051
52.4799999999988          0.44655679276141025
52.499999999998806        0.49824768641300804
52.51999999999881         0.5444770196041955
52.53999999999882         0.5778901828906102
52.55999999999881         0.5956872787571741
52.57999999999881         0.6008424341402571
52.59999999999881         0.5955514187184604
52.61999999999878         0.5775478508292572
52.639999999998786        0.5439044523574812
52.65999999999877         0.4976232275699395
52.67999999999874         0.445819814549804
52.69999999999873         0.39815063393832906
52.71999999999871         0.3590662179956088
52.739999999998716        0.32868451416587635
52.75999999999871         0.3058335372095629
52.7799999999987          0.2892665166372118
52.7999999999987          0.27802627305884947
52.81999999999868         0.271456766954789
52.839999999998675        0.26917877776169624
52.859999999998664        0.27106564207159833
52.87999999999867         0.27723410930430076
52.89999999999865         0.28805319447392413
52.91999999999867         0.30416846812729337
52.93999999999864         0.3265272645360542
52.959999999998644        0.3563456983371355
52.97999999999864         0.39479859121057304
52.999999999998614        0.44176423191253394
53.019999999998646        0.49284116763235414
53.03999999999865         0.5385869791229114
53.05999999999862         0.5716450266904293
53.07999999999864         0.5892495249135584
53.099999999998644        0.5943498230873873
53.119999999998626        0.5891215094906491
53.13999999999862         0.5713217679446939
53.15999999999861         0.5380502631410453
53.1799999999986          0.49227498996467095
53.199999999998575        0.4410322052951962
53.219999999998564        0.39387834055258375
53.23999999999854         0.3552192686301998
53.25999999999853         0.3251772454762239
53.27999999999852         0.3025773178104002
53.29999999999852         0.28620420662473645
53.31999999999851         0.2751028230150082
53.339999999998504        0.26862570322643436
53.35999999999849         0.26639816250713116
53.37999999999848         0.26829550318017015
53.39999999999848         0.2744339965713852
53.419999999998474        0.285179683081887
53.43999999999846         0.30117245392413433
53.459999999998466        0.32335101399925087
53.47999999999847         0.35292013558888646
53.49999999999845         0.3910432936000924
53.519999999998454        0.43759838009613455
53.539999999998464        0.48821612815560433
53.55999999999846         0.5335519218854469
53.57999999999846         0.5663060123953149
53.599999999998474        0.5837461535049439
53.61999999999846         0.5887997460732544
53.63999999999846         0.5836247536777489
53.65999999999847         0.5659985614861812
53.67999999999844         0.5330442751288066
53.69999999999843         0.48770092319353
53.719999999998386        0.43693717021843215
53.73999999999839         0.39022359642658677
53.75999999999837         0.35192759912135335
53.77999999999837         0.32217090662335324
53.799999999998334        0.2997895479107456
53.819999999998345        0.2835773994977403
53.83999999999832         0.27259499454057995
53.85999999999833         0.2661945450624341
53.879999999998326        0.2640073947015583
53.8999999999983          0.26591046201304863
53.9199999999983          0.27201952378425
53.9399999999983          0.2826979633493999
53.95999999999828         0.29858066599807803
53.97999999999828         0.3205987753796249
53.99999999999827         0.3499471693183501
54.01999999999827         0.38777945865678976
54.03999999999829         0.43397342846616277
54.05999999999828         0.48419280299284595
54.07999999999829         0.5290374647218783
54.09999999999829         0.5615952393220048
54.119999999998306        0.5789547927548518
54.139999999998295        0.5839686392667642
54.15999999999829         0.578840568059415
54.17999999999829         0.5613657225843076
54.19999999999827         0.5286876660463687
54.21999999999824         0.483720221284962
54.23999999999822         0.4333730885654836
54.2599999999982          0.3870421750318091
54.27999999999818         0.3490614557276171
54.29999999999818         0.3195522183832878
54.31999999999817         0.2973600520932497
54.33999999999815         0.281288715712099
54.359999999998145        0.270404835036323
54.379999999998155        0.2640711022709511
54.39999999999813         0.2619171286772972
54.41999999999813         0.263822872913276
54.43999999999812         0.2699036362977211
54.45999999999811         0.28052043459498543
54.479999999998114        0.2963037302963085
54.499999999998096        0.3181780136016827
54.51999999999809         0.3473294951756053
54.539999999998095        0.3849031848914285
54.55999999999809         0.43077679071295766
54.57999999999809         0.48064282644158135
54.599999999998126        0.5251667057902308
54.61999999999813         0.5574888949480294
54.63999999999813         0.5747200954085281
54.65999999999812         0.5796985854695292
54.67999999999811         0.5746110686047913
54.69999999999811         0.5572690326711786
54.71999999999809         0.5248342869830052
54.73999999999806         0.4801983815811325
54.75999999999804         0.4302190933546361
54.77999999999802         0.3842259625759131
54.799999999998           0.34652316581049314
54.819999999998           0.3172315764269853
54.839999999997985        0.2952052448606833
54.859999999997974        0.27925667510656554
54.87999999999797         0.2684593731365671
54.89999999999795         0.26217995588393084
54.91999999999795         0.26005341545500965
54.93999999999795         0.2619583309719322
54.95999999999793         0.2680103458340327
54.97999999999795         0.2785682823325797
54.99999999999792         0.2942585638712164
55.01999999999792         0.31599963418646243
55.03999999999791         0.34496985354437515
55.05999999999792         0.38230649562861097
55.0799999999979          0.4278873593211094
55.09999999999792         0.4774314081526334
55.11999999999795         0.521663764547652
55.13999999999796         0.5537722514986884
55.15999999999795         0.5708881249288593
55.17999999999795         0.5758339037079706
55.19999999999795         0.5707829308927634
55.219999999997945        0.553560804277391
55.23999999999791         0.5213458706042692
55.25999999999789         0.47700952181068557
55.27999999999787         0.42736259003539634
55.299999999997844        0.38167445912570697
55.319999999997826        0.34422229252310305
55.33999999999783         0.3151265773397075
55.359999999997804        0.29324901429845435
55.3799999999978          0.2774100070158421
55.399999999997796        0.26668927135349474
55.41999999999778         0.260457728997604
55.43999999999777         0.2583529122690009
55.45999999999777         0.26025519189675317
55.47999999999777         0.26627717916919896
55.499999999997755        0.2767781218922199
55.51999999999775         0.2923798420456612
55.53999999999775         0.3139951670840417
55.55999999999773         0.34279518171135315
55.57999999999774         0.3799100224784311
55.59999999999773         0.4252177201545957
55.619999999997745        0.4744621198558853
55.639999999997755        0.5184239978266543
55.65999999999777         0.5503346382516225
55.6799999999978          0.5673441131670866
55.699999999997765        0.5722598710808988
55.719999999997775        0.5672429245717074
55.73999999999777         0.550131774140017
55.75999999999774         0.5181200554077073
55.77999999999772         0.47406048320350885
55.7999999999977          0.42472039832877007
55.81999999999766         0.37931363844522104
55.83999999999766         0.34209245270773886
55.85999999999764         0.3131769715052955
55.87999999999764         0.29143594999018874
55.899999999997625        0.2756970704420752
55.91999999999762         0.26504576020465287
55.9399999999976          0.2588568960025543
55.959999999997606        0.25677034863053244
55.979999999997595        0.25866733137543346
55.99999999999759         0.26466153687804145
56.01999999999758         0.2751052953412693
56.039999999997576        0.290621794309981
56.05999999999757         0.312116945710108
56.07999999999756         0.3407550173791915
56.09999999999758         0.37765947909831743
56.11999999999755         0.4227086282899782
56.13999999999757         0.4716696966350403
56.15999999999758         0.5153757630251423
56.17999999999758         0.5470991884439349
56.19999999999759         0.5640077465090723
56.2199999999976          0.5688947684829965
56.2399999999976          0.563910389008993
56.25999999999758         0.5469620671206404
56.279999999997585        0.5152078175471806
56.29999999999754         0.4712825700112623
56.3199999999975          0.4222310543777157
56.33999999999749         0.37708880779496395
56.35999999999746         0.3400845653833953
56.379999999997445        0.3113381059547314
56.39999999999746         0.2897248221618023
56.419999999997444        0.27407923988829136
56.43999999999745         0.2634921458137462
56.45999999999743         0.2573421141100088
56.47999999999742         0.25527119581020313
56.499999999997414        0.2571613895238679
56.51999999999742         0.2631258055222802
56.5399999999974          0.27351695850236446
56.559999999997395        0.28894936030511686
56.57999999999739         0.310326800187965
56.59999999999738         0.338808350721459
56.619999999997376        0.37550997422293486
56.63999999999738         0.4203102961634337
56.6599999999974          0.4689991237333264
56.679999999997406        0.5124597905942524
56.69999999999743         0.5440038176037082
56.71999999999744         0.5608158079855141
56.73999999999744         0.5656753439977449
56.759999999997454        0.560721212274655
56.77999999999741         0.5438720804123044
56.79999999999741         0.5123001319531528
56.819999999997364        0.4686294110153067
56.83999999999734         0.4198490125505824
56.85999999999731         0.3749599066692952
56.87999999999729         0.33816326477981123
56.89999999999727         0.30957850806726994
56.919999999997266        0.28808738021439934
56.93999999999725         0.27253095725219123
56.95999999999725         0.26200515268146535
56.97999999999725         0.2558920729254971
56.99999999999724         0.25383584760602934
57.01999999999723         0.25571923409132363
57.03999999999723         0.26165480799202856
57.05999999999722         0.27199319657018084
57.079999999997206        0.2873456063681085
57.0999999999972          0.3086064047825393
57.1199999999972          0.3369420918325166
57.13999999999719         0.3734488628372493
57.15999999999719         0.418010233164658
57.17999999999721         0.4664376820092845
57.19999999999723         0.5096627687488917
57.219999999997256        0.5410345898312812
57.239999999997266        0.5577538887302184
57.25999999999726         0.5625870452043953
57.27999999999726         0.557661951003457
57.29999999999725         0.5409080192479327
57.31999999999723         0.5095110029259531
57.33999999999719         0.4660797331916853
57.35999999999715         0.4174837567001249
57.379999999997125        0.37286053959417537
57.39999999999711         0.33632057470745963
57.41999999999709         0.30789099117278307
57.43999999999708         0.2865170888881199
57.45999999999707         0.2710462213739091
57.47999999999708         0.26057921540201695
57.49999999999706         0.2545015600481214
57.519999999997054        0.25245936964241367
57.53999999999705         0.25433612140237993
57.55999999999703         0.26024389158714023
57.579999999997035        0.2705315128749589
57.59999999999704         0.2858069899194379
57.61999999999701         0.3069600147622557
57.63999999999703         0.33512905226935824
57.659999999997           0.3714703256456206
57.679999999997015        0.4158018782955057
57.69999999999704         0.46397819312387933
57.71999999999706         0.5069774196148555
57.73999999999709         0.5381844415087577
57.759999999997085        0.554815379324334
57.779999999997095        0.559623627158249
57.799999999997084        0.554726593650385
57.819999999997066        0.5380640935998399
57.83999999999705         0.5068349503668841
57.85999999999703         0.4636334294174551
57.87999999999698         0.4152920222585058
57.89999999999696         0.3709017074716694
57.91999999999693         0.3345306587832172
57.93999999999692         0.3062718153384057
57.9599999999969          0.2850103242082117
57.9799999999969          0.2696214578674956
57.99999999999689         0.25921075448719105
58.0199999999969          0.25316694560579606
58.03999999999688         0.25113804518360694
58.05999999999687         0.2530082137955782
58.079999999996865        0.25888904886366404
58.09999999999686         0.2691276887387113
58.11999999999686         0.2843290819371745
58.13999999999685         0.305378427865478
58.15999999999685         0.3334084585799971
58.17999999999683         0.36951253364483266
58.19999999999685         0.4136005243641401
58.21999999999686         0.46161520601861195
58.23999999999687         0.5043967004307879
58.25999999999689         0.5354444896690236
58.2799999999969          0.5519895812131649
58.299999999996906        0.5567732043068911
58.31999999999691         0.5519026353325078
58.3399999999969          0.535327578474731
58.35999999999687         0.5042595192793031
58.37999999999685         0.46127876648298655
58.39999999999681         0.41318225730210023
58.41999999999679         0.3690160591715127
58.43999999999676         0.33282867140468825
58.459999999996754        0.30470828433416247
58.479999999996714        0.2835592481865694
58.49999999999673         0.26824898604377856
58.51999999999671         0.25789208460954416
58.53999999999671         0.251880390752645
58.5599999999967          0.24986373563773573
58.579999999996694        0.25172691956298415
58.59999999999669         0.2575810548328433
58.61999999999667         0.2677716334697898
58.63999999999666         0.28290065794630903
58.659999999996664        0.3038489557712108
58.67999999999666         0.33174367244049735
58.69999999999666         0.36767275710823216
58.71999999999667         0.4115463039960282
58.73999999999668         0.45933125836697614
58.75999999999669         0.5018968714446209
58.77999999999672         0.5327907779759616
58.79999999999672         0.5492532145714192
58.81999999999676         0.5540132554683553
58.83999999999674         0.5491682452378531
58.85999999999673         0.5326775554534768
58.879999999996706        0.5017651715917326
58.89999999999668         0.4589980017246091
58.919999999996634        0.4111387000633598
58.939999999996594        0.36718965717755697
58.959999999996576        0.3311801844539789
58.97999999999656         0.3031982483039138
58.999999999996554        0.2821547454749102
59.019999999996536        0.26692140842165457
59.03999999999652         0.25661434014670736
59.059999999996535        0.25063349492810255
59.07999999999652         0.2486283908754195
59.09999999999652         0.2504844385687719
59.1199999999965          0.25631226405282026
59.13999999999649         0.26645574758528884
59.15999999999649         0.28151404046206524
59.17999999999649         0.3023637318675927
59.19999999999647         0.3301265160014171
59.21999999999648         0.36588506914192587
59.239999999996485        0.40954973334113487
59.259999999996516        0.457106203006778
59.27999999999654         0.4995897020338149
59.29999999999656         0.530211450930066
59.319999999996575        0.5465938696697576
59.33999999999659         0.5513312344623257
59.35999999999657         0.546511210336167
59.379999999996585        0.5301026133865229
59.39999999999653         0.4993416019540912
59.41999999999649         0.4567820851009667
59.43999999999646         0.40915336981516376
59.45999999999642         0.3654154153299198
59.479999999996394        0.32957890185498623
59.49999999999639         0.30173157861005934
59.519999999996365        0.2807896115704542
59.53999999999636         0.2656301670394692
59.55999999999636         0.25537518909464063
59.57999999999635         0.24942280737754002
59.59999999999634         0.24742898874897576
59.61999999999635         0.2492781590508549
59.63999999999632         0.25508046965582076
59.65999999999634         0.26517822970480737
59.67999999999632         0.2801678267933957
59.69999999999632         0.3009217664974325
59.719999999996304        0.3285564601093606
59.739999999996314        0.3641494584796422
59.759999999996325        0.40761133859224463
59.77999999999634         0.4549459680347532
59.79999999999638         0.49722990922887306
59.8199999999964          0.527764844977772
59.83999999999641         0.5440125557683724
59.85999999999641         0.5487270246875795
59.87999999999642         0.5439312114253494
59.89999999999641         0.5276022768703651
59.91999999999637         0.4969882408360143
59.93999999999633         0.4546304128387948
59.95999999999629         0.4072257358863439
59.97999999999626         0.36369291462537545
59.99999999999624         0.328024502006452
60.01999999999622         0.30030802916440363
60.03999999999621         0.27946478013440273
60.0599999999962          0.2643772007763475
60.07999999999619         0.2541713711362527
60.099999999996186        0.24824905890443638
60.11999999999618         0.24626550798705274
60.139999999996164        0.2481081003095428
60.15999999999617         0.25388573808582
60.17999999999618         0.2639392040380307
60.19999999999615         0.2788622025149566
60.219999999996155        0.29952329701534974
60.239999999996144        0.32703380575797064
60.259999999996154        0.36246631111527056
60.27999999999616         0.4057316036473075
60.29999999999619         0.45285111757857405
60.319999999996234        0.49494143780487454
60.339999999996245        0.5253357907746171
60.35999999999626         0.5415081937533665
60.37999999999626         0.5462011328964786
60.39999999999626         0.5414288153349486
60.41999999999627         0.5251771419911226
60.439999999996225        0.4947056961582201
60.459999999996185        0.4525435700915377
60.47999999999613         0.405356313014001
60.4999999999961          0.3620225903288168
60.51999999999608         0.3265173553224842
60.53999999999606         0.2989279226785209
60.559999999996045        0.2781805402717276
60.57999999999605         0.26316277551545836
60.599999999996044        0.25300472142679503
60.619999999996026        0.24711090621258947
60.63999999999602         0.24513817982025732
60.659999999996           0.24697370172124963
60.679999999996           0.2527283046937866
60.69999999999602         0.26273891100755264
60.71999999999599         0.27759741176130087
60.739999999996           0.29816854873150406
60.75999999999599         0.32555872779948364
60.77999999999599         0.3608357255035763
60.799999999996004        0.4039105381870593
60.81999999999602         0.45082165198975443
60.83999999999608         0.4927244723649359
60.85999999999609         0.5229827449997682
60.879999999996116        0.539082302665441
60.89999999999611         0.543754461342171
60.9199999999961          0.5390039824420162
60.93999999999608         0.5228277800848509
60.95999999999607         0.49249434912056766
60.97999999999602         0.4505217920861346
60.99999999999598         0.4035453130079947
61.019999999995946        0.36040467620424255
61.03999999999592         0.3250577041531196
61.05999999999591         0.2975914897683904
61.079999999995884        0.27693709698861413
61.09999999999588         0.2619870623415146
61.11999999999587         0.25187537144136
61.139999999995865        0.24600923004283237
61.15999999999586         0.24404705011183903
61.17999999999585         0.24587653726194414
61.19999999999585         0.25160652430903535
61.21999999999585         0.2615771940696905
61.23999999999584         0.27637321084540956
61.25999999999584         0.29685716221571784
61.27999999999583         0.3241306927590921
61.29999999999584         0.35925693584127466
61.319999999995844        0.402147110724547
61.33999999999587         0.44885636177045407
61.35999999999591         0.490577872689397
61.379999999995924        0.5207047590578524
61.39999999999594         0.5367341765103485
61.419999999995945        0.5413863822047141
61.43999999999595         0.5366576771164044
61.45999999999593         0.5204967047570861
61.479999999995904        0.49023291356241455
61.49999999999586         0.44856408714485346
61.51999999999582         0.40179187469254685
61.53999999999581         0.35883851471107997
61.55999999999577         0.32364506626071005
61.57999999999574         0.29629837983211577
61.599999999995745        0.27573419771043106
61.61999999999572         0.2608498836897326
61.63999999999572         0.2507832039933822
61.659999999995705        0.24494396583407357
61.679999999995694        0.2429920998808134
61.6999999999957          0.24481584553167615
61.71999999999568         0.25052362340683937
61.739999999995675        0.26045219135377407
61.75999999999567         0.27518986024181946
61.77999999999567         0.2955895292770194
61.79999999999567         0.322750263471504
61.81999999999567         0.357730727814643
61.839999999995676        0.40044237624781764
61.85999999999571         0.4469564824865192
61.87999999999576         0.4885027866586871
61.899999999995785        0.518502766359847
61.91999999999581         0.5344644978386746
61.939999999995806        0.5390975036844087
61.959999999995794        0.5343899008982956
61.97999999999578         0.518298735962765
61.99999999999575         0.48816410016851464
62.01999999999572         0.44666706445942633
62.039999999995665        0.40009740387726545
62.059999999995625        0.35732512920221693
62.07999999999561         0.32228013811705686
62.09999999999558         0.2950490494143093
62.119999999995585        0.27457212541387094
62.13999999999557         0.2597513870981921
62.159999999995556        0.24972825009159233
62.17999999999555         0.24391504013814289
62.199999999995555        0.2419731629899906
62.21999999999555         0.24379137565529027
62.23999999999553         0.24947770012577009
62.25999999999553         0.2593675522334913
62.279999999995525        0.27404577504321703
62.299999999995514        0.2943694413983572
62.31999999999551         0.3214167887650744