% Model:              Untitled.mph
% Version:            COMSOL 5.6.0.280
% Date:               Sep 24 2021, 10:14
% Dimension:          1
% Nodes:              1015
% Expressions:        1
% Description:        线图
% cln1x                   Height
49.2                      0.33788904206856807
49.21999999999992         0.33638841677908765
49.23999999999991         0.34023657651656547
49.259999999999906        0.3497928872591945
49.2799999999999          0.36575024053762284
49.2999999999999          0.3891624741718742
49.319999999999894        0.4214063662642347
49.339999999999876        0.46383646612872503
49.35999999999987         0.5164029222826132
49.37999999999987         0.5742791116005325
49.399999999999864        0.6264711398617302
49.41999999999985         0.6644033030764138
49.43999999999984         0.6846972484011244
49.45999999999984         0.6905011636915604
49.47999999999982         0.6841779333128856
49.499999999999815        0.6631774401821957
49.519999999999825        0.624199044446259
49.53999999999983         0.5705032152353972
49.55999999999981         0.5106164203766654
49.57999999999979         0.45559615568000256
49.59999999999979         0.41035785456754903
49.61999999999979         0.3750088273306006
49.63999999999978         0.3482140796834433
49.65999999999977         0.32858493584619686
49.67999999999976         0.31503014894496856
49.699999999999775        0.30679692686262766
49.71999999999975         0.3034437075715273
49.739999999999746        0.30481312410610467
49.759999999999735        0.31101870220185746
49.77999999999973         0.3224555247292903
49.79999999999973         0.3398257194732147
49.81999999999972         0.36416452858397147
49.839999999999705        0.3968022250339726
49.85999999999971         0.43902832068417
49.87999999999969         0.49075346697032945
49.89999999999969         0.5472570861949261
49.91999999999969         0.5979162304456984
49.939999999999685        0.6346041328702616
49.959999999999695        0.6541943642873199
49.97999999999967         0.6598548292116272
49.99999999999967         0.6539435938644438
50.01999999999966         0.6340427711357344
50.03999999999966         0.5969315681401578
50.05999999999963         0.5457019536783555
50.07999999999962         0.4884650303247196
50.09999999999962         0.4358643919156468
50.11999999999961         0.3926513076305174
50.1399999999996          0.3589370556281139
50.1599999999996          0.33344223482466206
50.17999999999959         0.3148364341393918
50.19999999999959         0.30207584638488605
50.219999999999565        0.2944423611096294
50.23999999999957         0.29151730892378297
50.25999999999958         0.29315485473149094
50.27999999999956         0.2994733721972577
50.299999999999564        0.31085802647335176
50.319999999999546        0.3279937028207436
50.339999999999534        0.351886135240474
50.35999999999952         0.38382529286575884
50.37999999999953         0.42505799207954287
50.39999999999952         0.4754844018357031
50.41999999999951         0.5304919725801545
50.43999999999951         0.5797392752188458
50.4599999999995          0.6153663382298755
50.479999999999485        0.6343677731062076
50.499999999999496        0.6398634770054724
50.519999999999506        0.6341657872068075
50.53999999999948         0.6148585094431239
50.559999999999484        0.5789897651210879
50.579999999999465        0.5293430570977855
50.59999999999946         0.4738342887163526
50.61999999999943         0.42281635551578406
50.639999999999425        0.38091992081095905
50.65999999999942         0.34825766113982615
50.67999999999942         0.3235884267395226
50.69999999999941         0.3056215350226455
50.71999999999941         0.2933450708067919
50.7399999999994          0.2860638225920682
50.759999999999394        0.2833737945022393
50.77999999999938         0.2851364554665043
50.79999999999938         0.2914688012135925
50.819999999999375        0.30275232940354535
50.839999999999364        0.31965952107037415
50.85999999999936         0.34316869958876167
50.87999999999935         0.37454233483734867
50.89999999999935         0.4149963552474408
50.91999999999935         0.4644254196482617
50.939999999999344        0.5183023844345966
50.95999999999935         0.5664989864172658
50.97999999999934         0.6013452455937457
50.99999999999934         0.6199185280122917
51.01999999999934         0.6252937558879149
51.039999999999324        0.6197447219541565
51.05999999999931         0.6009082454471409
51.07999999999932         0.5657454814442079
51.09999999999929         0.5173837142948665
51.11999999999929         0.46313562164611494
51.13999999999926         0.413273597501356
51.159999999999265        0.3723357631281232
51.17999999999925         0.34043510808450267
51.19999999999925         0.31635873184473845
51.21999999999923         0.2988452590902042
51.23999999999922         0.2869061736400405
51.259999999999216        0.2798629212739633
51.27999999999921         0.27732200156559644
51.299999999999216        0.2791498454189523
51.31999999999921         0.28546319297643696
51.339999999999186        0.2966379952509332
51.35999999999919         0.3133342133117666
51.37999999999918         0.33651650153584517
51.39999999999917         0.3674204735173017
51.41999999999917         0.4072396966405764
51.43999999999916         0.4558658654195139
51.45999999999917         0.5088415093264514
51.47999999999916         0.5562078188141377
51.49999999999915         0.5904408077238245
51.51999999999914         0.6086796925593467
51.53999999999913         0.6139599253576966
51.55999999999914         0.6085225890840016
51.57999999999914         0.5900459297447664
51.59999999999913         0.5555361656791835
51.619999999999116        0.5080561819257957
51.6399999999991          0.45488283627993237
51.65999999999908         0.40583317487696685
51.679999999999076        0.3656409344153563
51.699999999999065        0.33433041786079315
51.719999999999075        0.3107108626733023
51.73999999999905         0.29354385409176903
51.75999999999907         0.28185914030833625
51.779999999999035        0.2749910908886721
51.799999999999045        0.27255425027404295
51.81999999999903         0.2744187071806981
51.83999999999902         0.28070071402141367
51.85999999999902         0.29177151935934503
51.879999999999           0.3082818122121801
51.899999999999004        0.3311869811539543
51.919999999999           0.3616891479061867
51.93999999999898         0.4009778012484665
51.959999999998985        0.4489379853027067
51.97999999999898         0.5011702939541344
51.999999999998984        0.5478551125344455
52.019999999998994        0.581586328452416
52.039999999998976        0.5995522454379566
52.05999999999897         0.6047543064263811
52.07999999999897         0.5994056786569192
52.099999999998964        0.5812182057963089
52.119999999998946        0.5472362990468119
52.139999999998935        0.500474716939331
52.159999999998924        0.44809807331492707
52.179999999998905        0.3998449398424139
52.19999999999889         0.36019623243550397
52.21999999999889         0.3293641135323816
52.23999999999886         0.30611353056161317
52.25999999999887         0.2892247749827712
52.27999999999887         0.2777424409625527
52.299999999998846        0.271011360857455
52.31999999999886         0.26865253730721217
52.33999999999883         0.2705389117602967
52.35999999999885         0.27678617600218747
52.37999999999882         0.28776154383127067
52.39999999999882         0.3041079015177656
52.41999999999882         0.32676871576944333
52.43999999999881         0.35695422369774815
52.45999999999879         0.3958289054817785
52.4799999999988          0.4431633327311258
52.4999999999988          0.49476821945152144
52.51999999999882         0.5408799517111703
52.53999999999882         0.5741904281289788
52.55999999999881         0.5919283209251928
52.57999999999881         0.5970655963970892
52.59999999999879         0.5917916997982146
52.6199999999988          0.5738465808654506
52.63999999999878         0.5403064607016429
52.65999999999877         0.4941458840295532
52.67999999999875         0.44243528637773133
52.69999999999873         0.3947949734943646
52.71999999999872         0.35567697697244455
52.739999999998695        0.32522084498089754
52.75999999999871         0.30227828533029005
52.779999999998694        0.2856214843718117
52.79999999999869         0.2743073892836443
52.819999999998686        0.2676895327439868
52.83999999999866         0.26539427531961457
52.859999999998664        0.26729690216713203
52.879999999998674        0.27351259034718134
52.899999999998656        0.2844051275312308
52.91999999999866         0.30061082323170396
52.93999999999864         0.3230631263970254
52.95999999999864         0.35295910974240374
52.97999999999863         0.391450107442783
52.999999999998614        0.4383922880476331
53.019999999998625        0.4893816649247248
53.03999999999863         0.5350098939065739
53.059999999998624        0.5679660180449909
53.079999999998634        0.5855124121512
53.099999999998644        0.5905957690708916
53.119999999998626        0.5853854673442446
53.139999999998636        0.567645114661874
53.159999999998604        0.5344773941456582
53.1799999999986          0.4888228888154195
53.19999999999856         0.43767230552122605
53.219999999998564        0.39054673324505423
53.23999999999853         0.35185401792065185
53.25999999999853         0.32173802519859995
53.27999999999852         0.2990470214965828
53.29999999999851         0.2825846830746622
53.3199999999985          0.27140986883408136
53.339999999998504        0.2648845397336191
53.359999999998486        0.26263949711580575
53.37999999999847         0.2645519212317542
53.399999999998485        0.2707364636897614
53.41999999999847         0.28155391446911315
53.43999999999846         0.2976349083145697
53.45999999999846         0.3199043088179967
53.47999999999847         0.34954794360337893
53.499999999998444        0.38770595661152546
53.51999999999846         0.43423439364884575
53.53999999999845         0.4847616556023633
53.55999999999847         0.5299784443998932
53.57999999999848         0.5626297280936214
53.599999999998474        0.5800114558406397
53.6199999999985          0.5850479748476919
53.639999999998466        0.5798908676050618
53.65999999999847         0.5623240651237713
53.679999999998444        0.5294740442324919
53.69999999999843         0.48425259266659343
53.71999999999839         0.43358301144793315
53.73999999999838         0.386900175231415
53.759999999998364        0.34857307506405116
53.779999999998374        0.3187448495574489
53.79999999999834         0.2962746393067747
53.81999999999834         0.27997519215540556
53.83999999999833         0.26892092720751487
53.859999999998315        0.2624734213144965
53.87999999999832         0.26026947139071116
53.8999999999983          0.26218785377866927
53.919999999998296        0.26834272357371813
53.939999999998285        0.27909223468420097
53.95999999999828         0.2950620664805989
53.97999999999828         0.3171696122543812
53.99999999999827         0.34659095310481375
54.01999999999826         0.3844565666265341
54.03999999999828         0.4306225501037737
54.05999999999826         0.4807501873531333
54.079999999998286        0.5254741343792476
54.099999999998296        0.5579280770626216
54.1199999999983          0.5752280229372367
54.139999999998295        0.5802238244018092
54.15999999999829         0.5751126910712623
54.17999999999828         0.5576962660366892
54.19999999999826         0.5251220656203313
54.21999999999824         0.480276936641967
54.23999999999821         0.43002581324084416
54.2599999999982          0.3837282416355946
54.279999999998175        0.34571913204438637
54.299999999998164        0.3161409449411562
54.31999999999816         0.2938622924257178
54.339999999998156        0.2777057567331653
54.359999999998145        0.266751807645205
54.379999999998134        0.260372488812169
54.39999999999813         0.2582028127276711
54.41999999999813         0.26012459166947727
54.439999999998115        0.26625150699571876
54.459999999998104        0.27693936128959523
54.4799999999981          0.2928094432917823
54.49999999999809         0.3147725404262883
54.5199999999981          0.3439961332224314
54.53999999999809         0.381602215538667
54.55999999999809         0.4274471088155147
54.57999999999811         0.47722167505247565
54.59999999999813         0.5216267368635593
54.61999999999812         0.5538474666956047
54.63999999999813         0.5710214902854441
54.65999999999812         0.5759835970716773
54.67999999999812         0.5709141954535182
54.699999999998106        0.5536314665823533
54.71999999999809         0.5213007457594907
54.73999999999806         0.47678673376812214
54.75999999999803         0.4269022389814167
54.77999999999802         0.3809413612913348
54.799999999998           0.34320977350435117
54.81999999999799         0.3138494678445395
54.83999999999798         0.2917373084071639
54.859999999997974        0.2757044382875296
54.87999999999796         0.26483807902962864
54.89999999999796         0.25851411472796487
54.91999999999795         0.25637289931807994
54.93999999999793         0.2582948259626122
54.95999999999793         0.26439393795160626
54.979999999997936        0.27502389562373025
54.99999999999791         0.2908020395958278
55.01999999999792         0.3126332469701625
55.03999999999791         0.3416773302420169
55.059999999997906        0.37904875707226376
55.079999999997916        0.42460408348211975
55.09999999999791         0.47406043243826074
55.11999999999793         0.5181776285007684
55.13999999999795         0.5501874700941547
55.15999999999795         0.5672477745577699
55.17999999999794         0.5721776995739615
55.199999999997935        0.5671444699467427
55.21999999999793         0.5499802371390187
55.23999999999791         0.5178666996447264
55.25999999999789         0.4736487626330877
55.279999999997855        0.42409298929429945
55.29999999999784         0.37843413332760173
55.31999999999782         0.3409511250775332
55.33999999999781         0.31178545394321633
55.3599999999978          0.2898214281000984
55.37999999999778         0.2738979061650205
55.39999999999778         0.2631081804740953
55.41999999999778         0.2568323506047645
55.439999999997774        0.2547132666546474
55.45999999999776         0.2566330982046735
55.479999999997766        0.26270285711167957
55.49999999999775         0.27327671071072046
55.51999999999775         0.2889675112498742
55.539999999997754        0.3106746988492343
55.559999999997736        0.3395510537733581
55.57999999999774         0.37670416988546507
55.599999999997735        0.42199088953036257
55.619999999997745        0.4711524900866274
55.63999999999776         0.5150030351614736
55.659999999997765        0.5468174105061504
55.67999999999779         0.563771958477033
55.69999999999778         0.5686713583011564
55.71999999999777         0.5636713911110739
55.739999999997764        0.5466142821236185
55.75999999999774         0.5146998338103501
55.77999999999771         0.47075398920706435
55.799999999997695        0.4215011764049118
55.81999999999766         0.3761209371819794
55.83999999999766         0.3388671028748368
55.85999999999763         0.30988061684549106
55.87999999999763         0.28805267841931775
55.89999999999761         0.2722292874474341
55.9199999999976          0.26150934253120706
55.9399999999976          0.2552768283000337
55.9599999999976          0.25317690494959316
55.97999999999758         0.2550925975829925
55.999999999997584        0.26113604284510306
56.01999999999757         0.2716545416084821
56.039999999997555        0.2872624661453558
56.059999999997565        0.30885251917903456
56.079999999997554        0.33757090338688284
56.099999999997564        0.37451879681930317
56.11999999999755         0.419553402065882
56.13999999999756         0.46843890594151905
56.159999999997574        0.5120403854420311
56.17999999999759         0.5436726016603398
56.19999999999759         0.5605290469330407
56.21999999999759         0.5654005376135162
56.2399999999976          0.5604313861459451
56.25999999999758         0.5435351328947454
56.27999999999757         0.5118733522687166
56.299999999997524        0.468054978066892
56.319999999997506        0.41908379718663535
56.339999999997474        0.3739620641292145
56.359999999997456        0.33692053850404796
56.379999999997445        0.3080997133418406
56.39999999999743         0.28639718370123324
56.41999999999743         0.2706655657477275
56.43999999999743         0.2600089423700777
56.459999999997414        0.2538148749879173
56.47999999999742         0.251730634793086
56.4999999999974          0.2536400166667803
56.5199999999974          0.2596546082221129
56.5399999999974          0.2701219671545689
56.55999999999739         0.28564788420530773
56.57999999999738         0.3071232119551102
56.59999999999738         0.3356891397491631
56.61999999999737         0.37243963016422615
56.63999999999738         0.41723229156583524
56.65999999999741         0.46585327192710213
56.67999999999741         0.509216410475305
56.69999999999742         0.5406744696632777
56.719999999997434        0.5574372849605331
56.73999999999743         0.5622824577751352
56.759999999997426        0.5573434777980554
56.779999999997415        0.5405447225741825
56.79999999999739         0.5090609303770521
56.81999999999736         0.4654906301518946
56.839999999997325        0.4167820252252349
56.85999999999731         0.37190558895080356
56.87999999999729         0.3350654013388167
56.89999999999727         0.3064016104387989
56.91999999999726         0.2848178514641783
56.939999999997255        0.26917298447922355
56.959999999997244        0.25857598505262713
56.97999999999724         0.2524177841324843
56.99999999999724         0.25034762936515054
57.01999999999722         0.2522500278993735
57.03999999999723         0.25823604435714864
57.0599999999972          0.2686514085382159
57.07999999999721         0.2840987082356439
57.09999999999719         0.30545944851105755
57.119999999997184        0.3338827464343224
57.13999999999719         0.37044277177995644
57.159999999997204        0.4150022015010149
57.17999999999721         0.46336834386110165
57.19999999999723         0.5065019496362284
57.21999999999725         0.5377922524596724
57.23999999999725         0.554464682596789
57.259999999997255        0.5592838836892251
57.27999999999725         0.5543725955834726
57.29999999999723         0.53766566004369
57.319999999997215        0.5063514263646657
57.339999999997175        0.4630138628990289
57.359999999997136        0.4144829423111523
57.37999999999713         0.36986669690019097
57.39999999999709         0.3332791234353173
57.41999999999708         0.3047672125723413
57.43999999999708         0.28329825076493254
57.459999999997066        0.2677371824450439
57.47999999999707         0.2571977433446871
57.49999999999705         0.2510741382814604
57.519999999997054        0.24901753278030586
57.53999999999705         0.25091312652367626
57.55999999999704         0.25687150067390413
57.579999999997035        0.26723665658990653
57.59999999999704         0.2826080883323644
57.61999999999703         0.30386278470929806
57.63999999999702         0.33212183659221656
57.659999999997005        0.3685203165829021
57.679999999997015        0.4128548562407406
57.69999999999703         0.46097537992276333
57.71999999999706         0.5038879144379953
57.73999999999709         0.5350167624056626
57.75999999999709         0.5516023406579277
57.779999999997095        0.5563967469662803
57.79999999999708         0.5515124070672641
57.81999999999707         0.5348942618682176
57.83999999999705         0.5037436207559958
57.85999999999702         0.46063038440563375
57.879999999996976        0.41234857692502913
57.89999999999696         0.36796060395015917
57.91999999999693         0.3315381726195479
57.93999999999692         0.30319458299711965
57.959999999996896        0.2818361639658797
57.97999999999689         0.26635579961438405
57.99999999999689         0.25587179401350624
58.01999999999689         0.24978149296161745
58.03999999999688         0.24773789791793416
58.05999999999687         0.24962686240943543
58.07999999999686         0.2555584925766159
58.099999999996854        0.26587513791137185
58.11999999999685         0.2811733164714908
58.13999999999683         0.30232563112534827
58.15999999999685         0.33044757823176957
58.17999999999683         0.3666112060187985
58.19999999999685         0.4107059105010996
58.21999999999684         0.45866961752650565
58.23999999999686         0.5013696388464668
58.259999999996886        0.5323437240743493
58.279999999996896        0.5488466031875335
58.29999999999691         0.553617945037027
58.319999999996895        0.5487603313610071
58.339999999996884        0.5322285348142411
58.35999999999686         0.5012360252071565
58.37999999999684         0.4583390348226988
58.399999999996794        0.4102966017506416
58.41999999999678         0.36612765388241203
58.439999999996736        0.32988492926160695
58.45999999999675         0.3016768640097658
58.47999999999672         0.28042902438212225
58.49999999999673         0.26502596040690024
58.51999999999671         0.254594945604034
58.53999999999671         0.24853632745558635
58.55999999999669         0.24650485775776837
58.57999999999669         0.2483870037828223
58.59999999999668         0.2542923988628724
58.61999999999667         0.26456180114557265
58.63999999999667         0.2797888901184863
58.659999999996664        0.30084205065445924
58.67999999999666         0.3288313891013251
58.69999999999665         0.36482375507514464
58.71999999999667         0.4087088314947204
58.73999999999667         0.4564484571388204
58.75999999999671         0.4989371540276461
58.77999999999671         0.5297607994103078
58.799999999996736        0.5461826878594687
58.81999999999675         0.5509306226906485
58.839999999996735        0.54609735456119
58.85999999999673         0.529647080748166
58.8799999999967          0.4988058784481861
58.89999999999667         0.4561171439981227
58.91999999999662         0.40830688279987315
58.9399999999966          0.36435096539490114
58.95999999999657         0.3282830009071792
58.97999999999655         0.3002110749255891
58.99999999999655         0.2790671093561961
59.019999999996536        0.26373987904391416
59.039999999996525        0.2533579755602108
59.05999999999653         0.2473298026587275
59.07999999999651         0.245309746713
59.09999999999652         0.24718487004205575
59.119999999996494        0.2530643380039876
59.1399999999965          0.2632873510917923
59.15999999999648         0.27844483649174195
59.179999999996475        0.2994010913631477
59.19999999999647         0.32726095977813835
59.21999999999647         0.363086218745564
59.23999999999648         0.406766874589629
59.2599999999965          0.4542831111648859
59.27999999999653         0.4966947324161007
59.29999999999655         0.5272492842719942
59.31999999999656         0.5435929691477691
59.33999999999658         0.5483187100987804
59.35999999999657         0.5435097957760643
59.37999999999657         0.5271396309334454
59.399999999996524        0.49644620186621957
59.419999999996485        0.4539602824930957
59.43999999999644         0.40637539244887627
59.45999999999641         0.3626259751279501
59.479999999996394        0.32672738792247197
59.49999999999637         0.2987874265694339
59.51999999999638         0.2777430875477744
59.53999999999637         0.26248839519450523
59.55999999999636         0.2521576476666728
59.579999999996346        0.2461572980294659
59.59999999999635         0.24414814491606898
59.61999999999635         0.2460162292958832
59.63999999999633         0.2518702457438829
59.65999999999634         0.2620478592372681
59.67999999999632         0.27713730441886497
59.699999999996315        0.2979989099944629
59.71999999999631         0.3257323877939918
59.73999999999631         0.3613945507380199
59.75999999999632         0.40487575546726245
59.77999999999634         0.4521742655744092
59.79999999999637         0.49439063076248846
59.8199999999964          0.5248619421894327
59.839999999996415        0.5410730977677113
59.859999999996425        0.5457770447341465
59.879999999996414        0.5409925165936955
59.89999999999641         0.5247011450300892
59.91999999999637         0.4941522056793656
59.93999999999633         0.45186405996472184
59.95999999999629         0.4044982863432213
59.97999999999626         0.36094940102095757
59.999999999996234        0.32521530429671974
60.019999999996216        0.29740355284441505
60.0399999999962          0.2764560493566471
60.059999999996194        0.2612718939516703
60.0799999999962          0.2509893654034224
60.09999999999619         0.24501845305314846
60.11999999999618         0.2430191507658189
60.13999999999617         0.2448804419990974
60.159999999996174        0.25070977026240565
60.17999999999617         0.26084331092249735
60.19999999999616         0.27586668829708383
60.21999999999616         0.2966364057123835
60.239999999996144        0.32424724566659213
60.25999999999614         0.3597512276907345
60.27999999999616         0.4030389907351311
60.299999999996174        0.45012602553069603
60.31999999999623         0.49215205095291714
60.33999999999624         0.5224851086923086
60.35999999999627         0.5386220329402766
60.37999999999627         0.5433044655966991
60.399999999996254        0.5385424234479166
60.419999999996264        0.5223261026466272
60.43999999999621         0.4919165017807766
60.45999999999617         0.4498202097186355
60.479999999996124        0.4026683752933836
60.4999999999961          0.35931583195937217
60.51999999999608         0.32374284532563136
60.53999999999606         0.2960566373970611
60.55999999999605         0.2752039423667708
60.57999999999605         0.2600888626823265
60.599999999996044        0.24985359577692862
60.61999999999601         0.2439108242345673
60.63999999999603         0.24192210630884634
60.65999999999602         0.24377618104750848
60.67999999999601         0.249582447307029
60.69999999999602         0.2596732351885335
60.719999999996           0.27463242082862643
60.73999999999601         0.295312775016572
60.75999999999598         0.3228042929500663
60.77999999999599         0.358154332277641
60.799999999996           0.4012538436654449
60.81999999999603         0.4481353152217266
60.839999999996074        0.48997685671369284
60.85999999999609         0.5201763101000042
60.87999999999611         0.5362419963928386
60.89999999999611         0.540904400437671
60.91999999999611         0.5361643143018807
60.93999999999609         0.5200227868928893
60.95999999999606         0.4897494161761148
60.97999999999602         0.4478399414614982
60.99999999999597         0.4008955034907554
61.019999999995946        0.3577329650895564
61.03999999999591         0.3223159072562271
61.05999999999589         0.294751290009313
61.079999999995884        0.27399049366998707
61.09999999999587         0.2589424307882352
61.11999999999587         0.2487530711878293
61.139999999995865        0.24283769271971717
61.15999999999586         0.2408593661305324
61.17999999999585         0.24270735580995775
61.199999999995846        0.24848905740321542
61.21999999999584         0.2585401227921615
61.23999999999583         0.27343723565546413
61.259999999995834        0.29403111616549316
61.27999999999582         0.32140712629502405
61.29999999999583         0.3566081285750623
61.31999999999584         0.3995253797418319
61.33999999999586         0.44620784158716625
61.35999999999591         0.4878708197947225
61.379999999995924        0.517940966828188
61.399999999995934        0.5339376588201358
61.419999999995945        0.5385804356195341
61.43999999999594         0.5338617408485139
61.45999999999592         0.5177341522648392
61.4799999999959          0.48752798319849916
61.49999999999586         0.4459197717623677
61.51999999999582         0.39917665309993844
61.539999999995786        0.356198907532871
61.55999999999577         0.3209335376263853
61.57999999999574         0.2934871866203181
61.59999999999573         0.2728157742159627
61.61999999999572         0.25783291122016166
61.63999999999571         0.24768825018381685
61.65999999999571         0.24179960599179215
61.6799999999957          0.23983153038062216
61.69999999999568         0.241673807560561
61.719999999995686        0.2474334313897943
61.739999999995675        0.25744266013390454
61.75999999999567         0.2722819018080683
61.77999999999567         0.29279226901822064
61.79999999999566         0.32005667497039514
61.819999999995666        0.3551136587775829
61.839999999995676        0.39785479035540205
61.85999999999571         0.44434495547185604
61.87999999999576         0.48583541345579434
61.89999999999578         0.515780653694859
61.9199999999958          0.5317107313510224
61.93999999999579         0.5363346022384222
61.959999999995794        0.5316366474631464
61.979999999995776        0.5155777144256303
61.999999999995744        0.4854986224909569
62.019999999995704        0.44405922163507644
62.039999999995665        0.3975159683456712
62.05999999999562         0.3547168418965531
62.07999999999561         0.3195981025776089
62.099999999995575        0.29226609259815634
62.119999999995585        0.2716811132678092
62.13999999999556         0.2567613070662397
62.15999999999555         0.24665988082181037
62.17999999999553         0.2407971017039351
62.19999999999554         0.23883896020579712
62.21999999999554         0.24067574633755345
62.23999999999553         0.24641406476342365
62.25999999999553         0.2563848651810514
62.27999999999552         0.2711651693818132
62.299999999995514        0.2916003788627063
62.31999999999551         0.3187524909441972