% Model:              Untitled.mph
% Version:            COMSOL 5.6.0.280
% Date:               Sep 24 2021, 10:11
% Dimension:          1
% Nodes:              1015
% Expressions:        1
% Description:        线图
% cln2x                   Height
21.52                     0.23175717599374743
21.539999999999992        0.23355003082007875
21.55999999999999         0.23905560200363707
21.58                     0.24859384362819856
21.599999999999994        0.2627301128987549
21.61999999999999         0.2822860386710238
21.639999999999986        0.30831745540038286
21.65999999999999         0.3418430180959232
21.679999999999996        0.3827504513052874
21.700000000000003        0.4271935063349164
21.719999999999995        0.46685290168850707
21.739999999999995        0.4956439684599137
21.759999999999994        0.5110056730984277
21.779999999999998        0.5154879824192966
21.799999999999986        0.5110460969217112
21.819999999999983        0.4957759321278036
21.839999999999993        0.46696464820238465
21.859999999999996        0.4273327472853266
21.879999999999995        0.3829101410932872
21.89999999999999         0.3420194359188114
21.91999999999999         0.3085098777792675
21.939999999999998        0.28249506429770427
21.95999999999999         0.2629566661591394
21.97999999999999         0.24883877498491017
21.999999999999993        0.2393180687480818
22.02                     0.2338325679363544
22.039999999999992        0.2320596965218358
22.059999999999995        0.23389508646097534
22.07999999999999         0.23944473157887244
22.099999999999987        0.24903270108586179
22.119999999999994        0.26322088806495525
22.139999999999986        0.2828393167319747
22.15999999999999         0.3089447495427211
22.179999999999993        0.34255837416138635
22.199999999999992        0.3835676806282609
22.219999999999988        0.4281177162240838
22.239999999999984        0.46787076720115867
22.259999999999984        0.496729233130898
22.279999999999983        0.5121269782981904
22.299999999999986        0.5166201716137685
22.31999999999999         0.5121688746276916
22.33999999999999         0.49686526559428273
22.359999999999992        0.46810642759334864
22.379999999999992        0.42827777001635764
22.399999999999988        0.38375386261159194
22.419999999999987        0.34277498566001413
22.43999999999999         0.3091936048942159
22.459999999999983        0.28312349423777544
22.479999999999986        0.26354407862156065
22.499999999999986        0.2493971389968275
22.51999999999998         0.23985756481570628
22.539999999999992        0.2343621727983996
22.559999999999988        0.23258771930559433
22.579999999999984        0.2344296596079399
22.599999999999984        0.23999428699254804
22.619999999999987        0.24960646684090051
22.639999999999986        0.26383047775072055
22.65999999999998         0.2834951669025379
22.67999999999998         0.3096629079880531
22.699999999999985        0.34335623813530397
22.719999999999978        0.3844624412029337
22.739999999999988        0.4291177698943565
22.759999999999977        0.46896524992358274
22.779999999999976        0.49789276928641996
22.799999999999976        0.5133280402752082
22.819999999999975        0.5178329103335985
22.83999999999998         0.5133719790547723
22.859999999999978        0.49803310688008234
22.879999999999978        0.46920757229758076
22.899999999999984        0.42928651386266437
22.919999999999977        0.38458536905898644
22.93999999999997         0.3435863595977716
22.959999999999976        0.30992801258956443
22.979999999999976        0.28379860749909797
22.99999999999998         0.2641751958788657
23.019999999999975        0.24999709142627627
23.039999999999974        0.24043726587754885
23.05999999999997         0.2349312455363481
23.079999999999977        0.2331550724230905
23.099999999999973        0.23500401439146318
23.119999999999976        0.24058468863499563
23.139999999999972        0.25022281858708845
23.15999999999997         0.2644841300105617
23.17999999999997         0.28419535020915665
23.19999999999997         0.310413826331154
23.21999999999997         0.3442131349970618
23.239999999999977        0.38542346101177594
23.259999999999977        0.43019196389446795
23.27999999999997         0.4701409418727573
23.29999999999997         0.4991427335944406
23.319999999999965        0.5146184277653861
23.339999999999964        0.5191359997433129
23.35999999999997         0.5146648978614697
23.379999999999967        0.4992882973187707
23.399999999999967        0.4703912040040352
23.419999999999966        0.43037088624252695
23.439999999999973        0.385558863263909
23.459999999999965        0.3444052463435565
23.479999999999972        0.31071729825645444
23.499999999999964        0.28452400569258984
23.519999999999964        0.2648531300178293
23.53999999999996         0.2506413441295266
23.559999999999967        0.24105955679910057
23.579999999999966        0.23554190261227662
23.599999999999962        0.23376365159850354
23.619999999999965        0.23561986584726446
23.639999999999958        0.2412175059577954
23.659999999999965        0.25088321242454603
23.679999999999968        0.26518426081864105
23.69999999999996         0.28494962075252656
23.719999999999956        0.31123949778836724
23.73999999999996         0.3450770614686812
23.75999999999996         0.3864520668319923
23.779999999999955        0.43134157747160407
23.799999999999965        0.47139893416881223
23.819999999999954        0.5004799262089689
23.839999999999957        0.5159985564504469
23.85999999999996         0.5205293880181059
23.87999999999996         0.5160469533788349
23.899999999999952        0.5006293909280385
23.919999999999956        0.4716552587626677
23.939999999999962        0.43152849025923595
23.959999999999955        0.3865980395381764
23.979999999999958        0.34533617213867207
23.99999999999995         0.31153950461563645
24.01999999999995         0.28529416693125126
24.03999999999995         0.2655767175286806
24.05999999999995         0.25132878896425576
24.079999999999952        0.24172333794596673
24.099999999999948        0.2361930138754001
24.11999999999995         0.2344122588589891
24.139999999999954        0.2362759087602703
24.159999999999958        0.2418912804277724
24.179999999999954        0.2515859780786282
24.19999999999995         0.2659289099113178
24.219999999999953        0.28575140818372236
24.239999999999945        0.31211668882374854
24.25999999999995         0.34605083962075583
24.279999999999944        0.3874689453823995
24.299999999999944        0.4325613996468834
24.31999999999994         0.4727340927309845
24.339999999999954        0.5018997242893003
24.359999999999946        0.5174647034789077
24.379999999999946        0.5220103593378053
24.39999999999995         0.5175167642337288
24.419999999999945        0.5020567659732935
24.43999999999994         0.4730015932377985
24.459999999999944        0.4327620571045131
24.479999999999936        0.3877051911224171
24.499999999999943        0.34632739191929557
24.519999999999946        0.31243608836469355
24.53999999999994         0.2861176526629181
24.559999999999935        0.26634679956730745
24.579999999999934        0.2520590023170999
24.599999999999937        0.24242806066263414
24.619999999999933        0.2368839630899929
24.639999999999933        0.23510025286260694
24.659999999999936        0.23697151206706502
24.679999999999932        0.24260542674354524
24.699999999999942        0.252330618463561
24.71999999999994         0.26671772626747825
24.739999999999938        0.2866005929899705
24.759999999999934        0.31304563850587547
24.779999999999934        0.34708205666411956
24.799999999999933        0.38862477003167134
24.819999999999933        0.43385804778188813
24.839999999999936        0.4742639265445264
24.859999999999943        0.5034017858326524
24.879999999999942        0.5190150327741766
24.899999999999938        0.5235757054184544
24.91999999999993         0.5190696565782531
24.939999999999934        0.5035640713286889
24.95999999999993         0.47442266722711235
24.979999999999936        0.43406362795031106
24.99999999999993         0.388873328520636
25.01999999999993         0.34737334814314963
25.03999999999993         0.3133822981771885
25.059999999999935        0.2869867665649297
25.079999999999927        0.26715841514863164
25.09999999999993         0.25283154134932545
25.11999999999993         0.24317161149939223
25.13999999999993         0.23761283979657497
25.15999999999993         0.23582585227383074
25.17999999999993         0.23770496062150462
25.19999999999993         0.24335823662025333
25.219999999999935        0.2531153698711508
25.23999999999993         0.26754881795073554
25.259999999999923        0.2874950618665188
25.27999999999993         0.31402388796949904
25.299999999999926        0.34816775230689573
25.31999999999993         0.3898414067140045
25.339999999999925        0.4352174295404224
25.35999999999992         0.4757514698683253
25.379999999999928        0.5050375129236526
25.39999999999993         0.5206464103898181
25.41999999999993         0.5252226762767921
25.439999999999923        0.520703102504249
25.459999999999923        0.5051489531896555
25.479999999999915        0.4759163187344299
25.499999999999922        0.43543126468901555
25.51999999999993         0.39010074225620284
25.539999999999925        0.348472542607442
25.55999999999992         0.3143768222066849
25.579999999999927        0.2879003603325281
25.599999999999923        0.26801161929209727
25.61999999999992         0.2536416017560768
25.639999999999922        0.24395473397174286
25.65999999999992         0.23837972197618928
25.679999999999918        0.2365884399235173
25.699999999999918        0.23847569792452866
25.719999999999914        0.24414920250837688
25.739999999999913        0.2539397606343106
25.75999999999992         0.2684217334824587
25.77999999999992         0.28843436327734967
25.799999999999923        0.3150509583077777
25.819999999999915        0.3493073861462303
25.83999999999991         0.39111823106550264
25.859999999999914        0.43664390937138714
25.879999999999914        0.4773125247187908
25.899999999999913        0.5066966778251775
25.91999999999991         0.5223596974469475
25.939999999999916        0.5269519857578939
25.959999999999916        0.522418884985878
25.979999999999908        0.5068146983725121
25.999999999999908        0.4774870407880806
26.01999999999991         0.43687005354397157
26.0399999999999          0.3913918616405891
26.059999999999903        0.3496283074972064
26.079999999999906        0.3154220766570109
26.099999999999913        0.28886020511326216
26.119999999999916        0.2689077502484221
26.139999999999905        0.2544921999441995
26.15999999999991         0.2447752587803102
26.179999999999907        0.239183796520621
26.19999999999991         0.2373886434011166
26.219999999999906        0.23928428804708934
26.23999999999991         0.2449788556709727
26.25999999999991         0.25480431231296047
26.279999999999905        0.26933700690923984
26.29999999999991         0.28941906776117565
26.319999999999904        0.3161274847400714
26.339999999999893        0.3505016894357636
26.359999999999907        0.39245609044822394
26.379999999999903        0.4381384113925738
26.399999999999906        0.4789479598737806
26.419999999999902        0.5084348668818113
26.439999999999905        0.5241537367617776
26.4599999999999          0.5287634297875754
26.479999999999908        0.5242149024710788
26.4999999999999          0.5085584345177854
26.5199999999999          0.47913072139240326
26.5399999999999          0.4383752596611175
26.559999999999896        0.3927425890287743
26.579999999999895        0.3508376300446071
26.599999999999895        0.3165159569419584
26.619999999999894        0.2898648387680303
26.639999999999894        0.26984578843755824
26.659999999999904        0.25538263215829504
26.679999999999897        0.2456342274751699
26.69999999999989         0.2400255293040977
26.719999999999892        0.23822629232791323
26.739999999999895        0.24012992462759655
26.759999999999895        0.2458472782244769
26.779999999999898        0.25570924640421644
26.79999999999989         0.2702950340140279
26.81999999999989         0.2904498060590216
26.839999999999897        0.31725442804539006
26.859999999999893        0.35175207986378376
26.879999999999896        0.39385694281110206
26.89999999999989         0.4397032054234949
26.91999999999989         0.4806597227426619
26.93999999999989         0.5102534065219925
26.95999999999989         0.5260298532744028
26.97999999999989         0.5306569909468917
26.9999999999999          0.5260924929674761
27.019999999999893        0.5103240048395856
27.03999999999989         0.4808470021698202
27.059999999999892        0.4399465133542356
27.079999999999885        0.39415256019664446
27.099999999999884        0.3521001458913632
27.119999999999884        0.31765808610969964
27.13999999999989         0.2909138583249541
27.159999999999886        0.2708252916034867
27.179999999999886        0.2563124063426252
27.19999999999989         0.24653109094092981
27.219999999999878        0.24090429163877708
27.239999999999878        0.23910064608356144
27.259999999999877        0.24101323812703762
27.279999999999884        0.2467518456198517
27.299999999999887        0.2566512026868983
27.31999999999988         0.2712940750306206
27.339999999999872        0.29152431999257444
27.35999999999989         0.31842879797914386
27.379999999999885        0.3530545603032846
27.399999999999878        0.39531560291700973
27.419999999999877        0.44133235394432946
27.439999999999884        0.48244236814614017
27.45999999999988         0.51214801304497
27.47999999999988         0.5279853610335828
27.49999999999988         0.5326314950103388
27.519999999999882        0.5280512459751339
27.53999999999989         0.51222506751746
27.55999999999988         0.48252061547355035
27.579999999999874        0.4415882147397096
27.599999999999874        0.3956256317264879
27.619999999999877        0.35341867284674716
27.639999999999876        0.3188504059465168
27.659999999999876        0.2920085970487359
27.67999999999987         0.2718471914034273
27.699999999999875        0.25728219499067073
27.719999999999878        0.24746636665409819
27.739999999999874        0.24182052705384438
27.759999999999874        0.24001212370418687
27.779999999999873        0.24193390237157064
27.799999999999876        0.24769610688073038
27.819999999999872        0.2576347842628615
27.839999999999872        0.27233388153376803
27.85999999999987         0.29264374476643423
27.87999999999987         0.31965218517492205
27.89999999999987         0.35441136823578456
27.91999999999987         0.39683508038805226
27.939999999999873        0.44302930514948013
27.95999999999987         0.48429885297131153
27.97999999999987         0.5141206614475486
27.999999999999872        0.5300209235602867
28.019999999999868        0.5346863325665286
28.039999999999868        0.5300890727056494
28.059999999999867        0.5142020885849231
28.079999999999874        0.48438359849328383
28.099999999999866        0.4432893208756207
28.119999999999862        0.39723325130404713
28.139999999999862        0.3547892239918103
28.15999999999986         0.3200899779240226
28.179999999999865        0.2931468507568154
28.19999999999986         0.27290977756230106
28.219999999999864        0.25829061672738823
28.23999999999986         0.24843889076857423
28.259999999999863        0.24277321830085374
28.279999999999863        0.24095980416022258
28.299999999999855        0.2428910399470071
28.319999999999865        0.2486776658477285
28.33999999999986         0.25865709899405004
28.359999999999864        0.2734156294977731
28.379999999999864        0.29381135860858193
28.399999999999856        0.32092335302130665
28.419999999999856        0.35582105626192356
28.43999999999987         0.3984136793919679
28.459999999999866        0.4447921563450106
28.479999999999862        0.4862272262986436
28.499999999999858        0.516169472105078
28.519999999999865        0.532134856734431
28.539999999999864        0.5368201177452023
28.559999999999864        0.5322050685483337
28.579999999999856        0.5162548339264711
28.599999999999856        0.4863178420834251
28.619999999999862        0.44506067310705383
28.639999999999855        0.3988229455091383
28.65999999999985         0.356267139123092
28.679999999999847        0.32137686084224204
28.699999999999854        0.29432851233712093
28.71999999999985         0.274012835590469
28.73999999999985         0.25933738542120865
28.75999999999985         0.24944832503759068
28.77999999999985         0.2437619874269575
28.799999999999855        0.24194328292636352
28.819999999999848        0.24388422186455835
28.839999999999847        0.249696054620133
28.859999999999843        0.2597176253592294
28.87999999999985         0.27453765390363594
28.899999999999846        0.2950177757223342
28.91999999999985         0.3222626173313518
28.939999999999845        0.3573378076328804
28.959999999999845        0.40005025116487747
28.97999999999986         0.44661960975369186
28.99999999999985         0.48822616352049997
29.019999999999854        0.5182931690694701
29.039999999999853        0.5343259918941383
29.059999999999853        0.5390317829986632
29.07999999999985         0.534398258591517
29.09999999999984         0.5183824375217674
29.11999999999985         0.4883225987983751
29.139999999999855        0.446896584523809
29.159999999999854        0.4004705680327458
29.179999999999847        0.35774209568284315
29.19999999999984         0.32273181690496405
29.219999999999843        0.2955532421300748
29.23999999999984         0.2751560754096666
29.259999999999835        0.26042225036246786
29.279999999999845        0.2504944484784331
29.29999999999984         0.24478663293141184
29.319999999999837        0.24296237164832926
29.339999999999844        0.2449132746046861
29.35999999999984         0.25075110747779705
29.379999999999836        0.26081618727890676
29.39999999999984         0.2756997520246754
29.419999999999835        0.29626709203509105
29.43999999999984         0.32362750762467823
29.45999999999983         0.35885116280383755
29.479999999999833        0.4018217828298449
29.49999999999985         0.4485110964848178
29.519999999999847        0.490295090363526
29.53999999999984         0.5204912054057145
29.55999999999983         0.5365938083003633
29.57999999999984         0.5413207297703124
29.599999999999838        0.536667779662299
29.619999999999834        0.5205836200058818
29.639999999999834        0.49039626960872773
29.659999999999833        0.44879531179225585
29.67999999999982         0.40217462044261115
29.699999999999832        0.3592678085774462
29.719999999999825        0.32411184570920337
29.739999999999828        0.2968249436712683
29.759999999999827        0.27633809311369917
29.77999999999983         0.261545047762008
29.79999999999983         0.25157720322192395
29.81999999999983         0.24584717724157648
29.839999999999826        0.24401715242460784
29.859999999999832        0.24597832617508625
29.879999999999832        0.25184299425622303
29.899999999999817        0.26195298597691974
29.91999999999982         0.2769021325789732
29.93999999999982         0.29755949732067216
29.95999999999983         0.3250392064334057
29.97999999999983         0.36041610077997227
29.999999999999822        0.40357359065254056
30.01999999999983         0.45046149898333854
30.03999999999984         0.4923133837602851
30.059999999999828        0.5227642305626675
30.079999999999828        0.538939521543879
30.099999999999824        0.5436888336142488
30.119999999999827        0.5390164679528646
30.139999999999826        0.5228624885755212
30.159999999999823        0.4925439131139924
30.17999999999981         0.4507623565435706
30.199999999999815        0.40393994525042803
30.21999999999982         0.36084804369311646
30.239999999999817        0.3255408831304768
30.259999999999813        0.2981370531305795
30.279999999999813        0.2775628554299105
30.299999999999812        0.2627051977181282
30.319999999999816        0.25269784420652813
30.339999999999815        0.24694474064051078
30.359999999999815        0.24510867120024646
30.379999999999814        0.2470804009758872
30.39999999999982         0.25297277270657936
30.419999999999817        0.2631291823116976
30.439999999999817        0.2781461498221555
30.45999999999982         0.2988966557373972
30.47999999999982         0.3264998410852134
30.499999999999815        0.36203540469429285
30.51999999999981         0.40538638717746384
30.53999999999981         0.452484925713906
30.55999999999981         0.49452576939472215
30.579999999999814        0.5250576853265952
30.599999999999813        0.5413644411811032
30.61999999999981         0.5461360021305528
30.63999999999981         0.5414424155401683
30.659999999999815        0.5252148162128051
30.679999999999808        0.49475949462963387
30.699999999999804        0.4527907063804035
30.719999999999803        0.4057603765779542
30.739999999999807        0.36247818308976376
30.759999999999817        0.3270156138614688
30.77999999999981         0.2994915546522867
30.799999999999805        0.27882749056942624
30.819999999999812        0.263905408362345
30.839999999999808        0.2538536809489758
30.8599999999998          0.2480783615385939
30.879999999999804        0.24623603879665001
30.899999999999803        0.2482186141077465
30.919999999999806        0.25413949541106945
30.939999999999813        0.2643436917752748
30.95999999999981         0.279430489954865
30.979999999999805        0.30027689823320175
30.999999999999805        0.3280072100879298
31.019999999999804        0.36370611726759405
31.039999999999807        0.40725632284187513
31.059999999999803        0.45457196945322853
31.079999999999806        0.4968080717539548
31.099999999999813        0.5274829454297052
31.11999999999981         0.5438665930503918
31.139999999999798        0.5486627385157493
31.1599999999998          0.543948300167947
31.1799999999998          0.5276460567690106
31.199999999999797        0.4970506164785557
31.2199999999998          0.45488909651619047
31.23999999999979         0.4076435681889674
31.25999999999981         0.36416393987772083
31.279999999999795        0.32854009509632426
31.29999999999981         0.3008913260896244
31.319999999999787        0.28013408064603607
31.33999999999979         0.2651451779051465
31.35999999999979         0.2550490044864451
31.379999999999797        0.2492481072650048
31.399999999999803        0.2473999234028068
31.419999999999796        0.24939350218999584
31.439999999999795        0.25534361321346244
31.459999999999795        0.2655969254913024
31.4799999999998          0.2807555726192601
31.499999999999787        0.3017007116547621
31.51999999999979         0.3295619460401663
31.53999999999979         0.3654291144575665
31.559999999999796        0.40918457304382605
31.579999999999796        0.45672391588990224
31.59999999999979         0.49916119585408664
31.619999999999788        0.5299833287655319
31.639999999999787        0.5464468994707092
31.659999999999794        0.551267188900442
31.67999999999978         0.546531475144075
31.699999999999783        0.530150526652296
31.719999999999782        0.49940989811359465
31.739999999999796        0.45704930158469576
31.75999999999978         0.4095823062926603
31.77999999999978         0.3658998213072459
31.79999999999978         0.33011029376561984
31.81999999999978         0.3023333756899108
31.83999999999978         0.2814803636226826
31.85999999999978         0.26642276429375267
31.879999999999768        0.25628086922368265
31.899999999999768        0.2504544577178373
31.919999999999774        0.2485993946045443
31.939999999999767        0.25060504770657926
31.959999999999773        0.25658439021510066
31.97999999999978         0.26688818804887676
31.99999999999978         0.28212070613872176
32.019999999999776        0.303167368170553
32.039999999999786        0.3311632369931334
32.059999999999775        0.36720344366650737
32.07999999999978         0.4111700063161734
32.09999999999978         0.4589395271823878
32.11999999999978         0.5015840123109413
32.13999999999979         0.5325579431458015
32.15999999999978         0.5491040479990283
32.17999999999979         0.5539494413199747
32.199999999999775        0.5491911106929216
32.21999999999978         0.5327884532748902
32.23999999999978         0.5018401803550797
32.25999999999977         0.4592746735151892
32.279999999999774        0.41157954150316045
32.29999999999977         0.36768801655738226
32.31999999999977         0.3317277515415951
32.33999999999977         0.3038187855396138
32.35999999999977         0.2828671116485572
32.37999999999977         0.2677387503782245
32.399999999999764        0.25754973768130685
32.41999999999976         0.25169699515184224
32.43999999999976         0.2498347723421529
32.459999999999766        0.2518519483325657
32.47999999999977         0.25786368790661696
32.499999999999766        0.26821982058785615
32.51999999999977         0.2835261592509104
32.539999999999765        0.30467715586518507
32.55999999999977         0.3328114066067977
32.57999999999978         0.36902948469421465
32.599999999999774        0.41321307322014333
32.619999999999784        0.4612192953326362
32.63999999999977         0.5040769732348592
32.659999999999776        0.5352071649623623
32.67999999999978         0.5518382846741577
32.699999999999775        0.5567095156892211
32.71999999999978         0.5519277985976139
32.73999999999977         0.5354429261619035
32.75999999999978         0.5044645100311212
32.779999999999745        0.4615642884932281
32.79999999999976         0.413634716013372
32.81999999999976         0.3695285230737624
32.83999999999976         0.3333930080146315
32.859999999999765        0.30534857936297255
32.87999999999976         0.2842957842882126
32.899999999999764        0.2690950178130284
32.91999999999975         0.25885792333798463
32.93999999999975         0.2529784688751789
32.95999999999975         0.2511092544539284
32.979999999999784        0.25313867228019704
32.999999999999766        0.25918252566818767
33.019999999999754        0.26959245903941453
33.03999999999976         0.2849785148876959
33.059999999999754        0.3062363212843798
33.07999999999976         0.3345136418068019
33.09999999999976         0.37091554311236635
33.11999999999976         0.4153233611293145
33.13999999999976         0.4635741090948503
33.15999999999977         0.5066520384308855
33.17999999999975         0.5379436952909502
33.199999999999754        0.5546626649365641
33.21999999999976         0.5595605206179468
33.23999999999976         0.5547544243061227
33.25999999999975         0.5381843082506717
33.27999999999975         0.5070471697725121
33.29999999999974         0.46393376562661504
33.31999999999975         0.4156773067281388
33.33999999999976         0.37143032241453655
33.35999999999975         0.33511450988881875
33.37999999999975         0.30693083610207056
33.39999999999975         0.2857742334513537
33.41999999999975         0.2704993161816487
33.43999999999974         0.2602132097240377
33.459999999999745        0.25430681463256144
33.47999999999974         0.2524310336963589
33.49999999999974         0.2544737811419452
33.51999999999974         0.26055154746133935
33.53999999999975         0.2710178827930261
33.55999999999975         0.28648607902859335
33.579999999999735        0.30785194393063275
33.599999999999746        0.33628297200005836
33.61999999999974         0.3728764110828776
33.639999999999745        0.4175177725934755
33.65999999999975         0.466023008646308
33.679999999999744        0.5093298606096694
33.69999999999977         0.540789180686396
33.71999999999974         0.5575991839350167
33.739999999999746        0.5625245094382859
33.75999999999974         0.5576929625449318
33.77999999999975         0.5410341972951812
33.79999999999974         0.5097321114568085
33.819999999999744        0.46639200050220253
33.83999999999974         0.41788416914508036
33.85999999999974         0.3733505183483194
33.87999999999975         0.33690511553057323
33.899999999999736        0.30857693971241995
33.91999999999974         0.2873126614311719
33.939999999999735        0.27196089295904385
33.95999999999974         0.2616240821398712
33.979999999999734        0.2556899304745881
33.99999999999973         0.25380755092665197
34.01999999999973         0.2558643622707384
34.03999999999972         0.2619775773587576
34.05999999999975         0.2725027314144241
34.079999999999735        0.28805649446486703
34.09999999999973         0.3095395719519018
34.11999999999974         0.3381036932696871
34.13999999999974         0.374860714923374
34.15999999999974         0.41980275843624126
34.17999999999974         0.46857293519276794
34.19999999999974         0.5121186307080687
34.21999999999974         0.5437531975869866
34.23999999999975         0.5606587080952516
34.25999999999974         0.5656130663345605
34.27999999999974         0.5607551211302084
34.299999999999734        0.544003932873654
34.31999999999973         0.512529902826006
34.339999999999726        0.46895354884329093
34.35999999999972         0.4201839188457831
34.379999999999725        0.37541145095054135
34.39999999999972         0.33874933242309735
34.41999999999973         0.3102928854462076
34.43999999999972         0.28891651160847515
34.459999999999724        0.2734847351829767
34.47999999999973         0.2630951488296537
34.499999999999716        0.25713214104565035
34.51999999999972         0.25524293311672785
34.53999999999972         0.25731440601114375
34.55999999999972         0.2634645254883058
34.57999999999973         0.2740508949036957
34.59999999999974         0.28969369672135553
34.61999999999972         0.31129872434420247