% Model:              Untitled.mph
% Version:            COMSOL 5.6.0.280
% Date:               Sep 24 2021, 10:14
% Dimension:          1
% Nodes:              1015
% Expressions:        1
% Description:        线图
% cln2x                   Height
21.52                     0.229073308519099
21.539999999999996        0.23085102217643394
21.55999999999999         0.2363788862824971
21.58                     0.24597205435201966
21.599999999999998        0.26018813254823847
21.61999999999999         0.2798375431718966
21.63999999999999         0.3059610047428552
21.659999999999993        0.33955838538925237
21.679999999999996        0.3804984558717051
21.699999999999992        0.4249276035011165
21.719999999999995        0.46454423805124306
21.739999999999984        0.49329187384868844
21.759999999999987        0.5086278440763036
21.779999999999987        0.5131017389631216
21.799999999999986        0.5086652719473442
21.819999999999983        0.49341665210528507
21.839999999999996        0.46464209852496186
21.859999999999992        0.4250433717668436
21.87999999999999         0.3806218380407559
21.899999999999995        0.3396826658351552
21.919999999999984        0.30608295900668925
21.93999999999998         0.2799556289024735
21.959999999999987        0.26030124076932964
21.979999999999983        0.2460788919231811
21.999999999999986        0.23647617365572432
22.019999999999982        0.23093842411336046
22.039999999999985        0.22914725754589724
22.05999999999998         0.23099965578555173
22.079999999999984        0.23660021534922
22.099999999999984        0.24626876509908432
22.119999999999983        0.26055984593751774
22.139999999999986        0.2802925394446465
22.159999999999986        0.306508570135776
22.17999999999999         0.3402102172302464
22.199999999999996        0.38126566517878385
22.219999999999988        0.4258121388899507
22.239999999999984        0.4655295351925452
22.259999999999987        0.49434907139306633
22.279999999999987        0.5097237185423706
22.299999999999986        0.5142099689454339
22.319999999999983        0.5097650713893478
22.339999999999982        0.4944840096262631
22.35999999999998         0.465763624707408
22.379999999999992        0.4259695352422803
22.39999999999998         0.38144812842682757
22.419999999999977        0.34042218179514017
22.43999999999998         0.30675171871308066
22.459999999999976        0.2805698659976982
22.47999999999998         0.2608750143723363
22.49999999999998         0.2466240156393531
22.519999999999985        0.23700272220907534
22.53999999999998         0.23145530260731448
22.559999999999988        0.22966272412283326
22.57999999999998         0.23152180037436304
22.599999999999977        0.23713742476567046
22.619999999999987        0.2468302089351104
22.639999999999986        0.26115703440444465
22.659999999999982        0.2809358282863441
22.679999999999982        0.3072138174602628
22.69999999999998         0.34099459439642416
22.719999999999988        0.38214609208627626
22.73999999999998         0.426796757311941
22.759999999999977        0.4666073992982684
22.77999999999997         0.495495025219353
22.799999999999976        0.5109066047085937
22.819999999999975        0.5154043616432099
22.839999999999982        0.5109500814138916
22.859999999999978        0.4956344465536534
22.879999999999974        0.46684839349162777
22.899999999999984        0.4269630940275899
22.919999999999977        0.382265194109065
22.939999999999976        0.3412200788415137
22.959999999999972        0.30747311358730367
22.979999999999972        0.28123224202159985
22.99999999999997         0.26149353452090524
23.01999999999997         0.24721141995766763
23.03999999999997         0.23756986755767331
23.05999999999997         0.23201177819081448
23.079999999999977        0.23021741612779803
23.099999999999973        0.23208340811718328
23.11999999999997         0.23771496117327437
23.13999999999997         0.24743352339184216
23.15999999999997         0.2617973892968375
23.179999999999975        0.28162222979473334
23.199999999999974        0.3079502311001797
23.219999999999974        0.3418363380591497
23.239999999999974        0.38309078771030086
23.259999999999977        0.42785323360698996
23.279999999999966        0.46776402506638587
23.29999999999997         0.49672487845412816
23.31999999999997         0.5121762573140811
23.339999999999968        0.5166864387083588
23.35999999999997         0.5122219570016138
23.379999999999967        0.49686886825272747
23.399999999999967        0.46801200916242436
23.419999999999956        0.42802860543911575
23.43999999999997         0.38322122132558567
23.459999999999965        0.34202237922821
23.479999999999958        0.3082470504418838
23.499999999999957        0.2819428667230996
23.519999999999964        0.26215703915993666
23.539999999999957        0.2478414274013071
23.55999999999996         0.23817799159674058
23.57999999999996         0.2326082764699989
23.59999999999996         0.2308117928745403
23.619999999999965        0.23268496514999945
23.639999999999958        0.2383333324777885
23.65999999999996         0.24807923343681088
23.679999999999957        0.2624824684824407
23.699999999999957        0.2823608866252427
23.71999999999996         0.30875944725710086
23.739999999999956        0.342682250499609
23.759999999999952        0.3841001287512098
23.779999999999955        0.42898187895842443
23.79999999999996         0.46899975232757785
23.81999999999995         0.4980390368592832
23.839999999999954        0.5135332186733726
23.859999999999957        0.5180569757206326
23.879999999999953        0.5135819687351881
23.899999999999952        0.4981893127371411
23.91999999999995         0.469257109819917
23.939999999999948        0.42916896173199304
23.959999999999948        0.3842442563867821
23.979999999999954        0.3429377896758311
23.999999999999947        0.30905389954953694
24.019999999999946        0.28269801584647386
24.03999999999995         0.2628658112780282
24.05999999999995         0.24851408940707026
24.079999999999945        0.23882697437251404
24.099999999999948        0.23324454638249414
24.119999999999948        0.23144549948713156
24.13999999999995         0.23332603265378604
24.15999999999995         0.2389920319092899
24.179999999999954        0.24876677952607265
24.19999999999995         0.2632116774899965
24.219999999999953        0.28314689520959496
24.23999999999995         0.30962034987411585
24.25999999999995         0.3436389986672445
24.279999999999948        0.3850986813687045
24.299999999999947        0.43018213967385793
24.319999999999943        0.4703135020828021
24.33999999999995         0.4994357289553512
24.359999999999946        0.5149748988555786
24.379999999999946        0.5195125381736029
24.39999999999995         0.5150256135724439
24.41999999999994         0.4995899709081642
24.43999999999994         0.47057696086381856
24.45999999999994         0.43037713187447413
24.479999999999936        0.38532809543264224
24.49999999999994         0.3439078377590558
24.519999999999943        0.3099309424329364
24.539999999999935        0.2835030647896905
24.55999999999993         0.26361814698621805
24.579999999999934        0.2492270183306941
24.59999999999993         0.2395146722093185
24.619999999999933        0.23391860708117018
24.639999999999926        0.2321166528721263
24.65999999999993         0.23400476854843638
24.679999999999932        0.23968920407006758
24.699999999999942        0.24949423523743824
24.719999999999928        0.26398295121066956
24.73999999999993         0.28397796616532145
24.759999999999934        0.31053031339896375
24.77999999999993         0.34464996117533503
24.79999999999993         0.38623255685524127
24.819999999999933        0.4314551554588635
24.839999999999936        0.4718182649494266
24.859999999999946        0.5009112284560839
24.87999999999994         0.5164982562121644
24.89999999999994         0.5210510550101211
24.919999999999927        0.5165523871869783
24.939999999999934        0.5010725210219926
24.95999999999993         0.4719750661219233
24.979999999999922        0.4316576505249364
24.999999999999922        0.3864766109620403
25.019999999999932        0.34493511392042
25.039999999999925        0.3108590858150724
25.059999999999928        0.28435448915419703
25.079999999999924        0.2644122778976649
25.099999999999927        0.24998216413250732
25.119999999999923        0.24024082890649945
25.139999999999922        0.23463003502656318
25.159999999999922        0.23282470185811985
25.179999999999925        0.23472051574239194
25.19999999999993         0.24042409454716804
25.21999999999993         0.25026074684365335
25.23999999999993         0.26479532478554946
25.259999999999923        0.28485300105195516
25.279999999999927        0.31148807062434863
25.299999999999926        0.34571365303500273
25.319999999999922        0.38742520399028557
25.33999999999992         0.4327883981263692
25.359999999999925        0.47327798359629963
25.379999999999924        0.5025182005023684
25.399999999999928        0.5181004972316066
25.419999999999924        0.5226690932061973
25.43999999999992         0.5181575580028003
25.459999999999923        0.5026303721173482
25.47999999999992         0.47344342261203476
25.499999999999915        0.4330019718881285
25.51999999999992         0.38768238346434586
25.539999999999917        0.3460138954575458
25.559999999999913        0.3118340450703275
25.57999999999991         0.2852490681371039
25.59999999999992         0.26524679782506316
25.61999999999991         0.25077372068394477
25.639999999999908        0.24100553873935723
25.659999999999908        0.2353785148504238
25.679999999999914        0.23356884489347565
25.699999999999914        0.23547272600711366
25.719999999999914        0.24119639357512576
25.739999999999913        0.25106624643083214
25.75999999999992         0.26564899608066966
25.779999999999916        0.28577251356649414
25.799999999999912        0.3124945350301449
25.81999999999991         0.3468315025164785
25.839999999999915        0.3886786416204664
25.859999999999914        0.43418951501368974
25.87999999999991         0.47481161967301144
25.899999999999917        0.5041482687134312
25.919999999999913        0.5197835642297558
25.939999999999916        0.5243676278987389
25.95999999999991         0.5198423515603482
25.979999999999905        0.5042653432614118
25.999999999999915        0.47498435558265123
26.01999999999991         0.43441265509180166
26.039999999999907        0.38894762175823094
26.0599999999999          0.3471458402374401
26.079999999999906        0.31285702005708343
26.0999999999999          0.2861876776950962
26.119999999999905        0.26612236581598625
26.139999999999905        0.2516041729309499
26.159999999999894        0.24180616764301718
26.179999999999904        0.23616283245529104
26.1999999999999          0.23434935079862426
26.2199999999999          0.23626161133886442
26.2399999999999          0.24200626468755357
26.2599999999999          0.25191084715143147
26.279999999999898        0.26654401879589884
26.29999999999991         0.2867364795998697
26.319999999999904        0.31354957360570274
26.3399999999999          0.3480032236664262
26.359999999999904        0.38999240037500593
26.3799999999999          0.4356579310390935
26.399999999999896        0.47641871313518147
26.419999999999895        0.5058561932601765
26.4399999999999          0.5215460326959453
26.459999999999898        0.5261469321277258
26.479999999999908        0.5216063323255758
26.4999999999999          0.5059777690925547
26.519999999999904        0.4765981909638533
26.539999999999896        0.4358899943786627
26.559999999999896        0.39027257235917756
26.579999999999888        0.3483311401381238
26.59999999999989         0.31392814559879983
26.61999999999989         0.28717039472029465
26.639999999999894        0.2670390021268365
26.6599999999999          0.25247349070068775
26.679999999999893        0.24264415561375796
26.69999999999989         0.23698361284209
26.719999999999892        0.23516599156691687
26.739999999999892        0.23708609678642106
26.759999999999888        0.24285330735319366
26.779999999999887        0.2527940328912341
26.79999999999989         0.26747973364072863
26.819999999999883        0.28774405687302834
26.8399999999999          0.31465210465367055
26.859999999999893        0.3492274232687019
26.879999999999892        0.39136472524331706
26.89999999999989         0.4371916253052508
26.919999999999888        0.4780972557720067
26.939999999999888        0.5076401141076073
26.95999999999989         0.5233869743518225
26.979999999999887        0.528005306950621
26.999999999999897        0.5234491580405694
27.019999999999893        0.5077094891932838
27.039999999999885        0.47828243068227405
27.05999999999988         0.43743143171669163
27.07999999999988         0.3916550106514852
27.09999999999988         0.34956802424805944
27.119999999999873        0.3150460282514476
27.139999999999876        0.2881961014396612
27.15999999999988         0.26799578633829263
27.17999999999988         0.25338090032462124
27.199999999999886        0.24351884626711642
27.219999999999875        0.23784028586259445
27.23999999999987         0.23601825994159897
27.259999999999877        0.2379472546555698
27.279999999999877        0.24373555457373094
27.29999999999988         0.25371340439337325
27.31999999999988         0.2684557625292063
27.33999999999988         0.28879489291079624
27.359999999999875        0.3158018064353062
27.37999999999988         0.35050382024294013
27.399999999999874        0.39279538187178736
27.419999999999874        0.43879037110198305
27.439999999999877        0.4798469384708177
27.45999999999987         0.5094996404086547
27.47999999999988         0.5253059897572518
27.499999999999872        0.5299426086137429
27.519999999999886        0.5253705128094694
27.539999999999882        0.5095735410551607
27.55999999999988         0.47991996224261535
27.579999999999874        0.4390395293712743
27.599999999999874        0.3930971532074977
27.619999999999873        0.3508580755478366
27.639999999999876        0.31621171277105514
27.659999999999865        0.28926546031812117
27.679999999999872        0.2689931177631658
27.699999999999868        0.254326618709742
27.71999999999987         0.24443033315459722
27.739999999999874        0.23873286317095904
27.75999999999987         0.23690609938426044
27.779999999999873        0.23884420049566932
27.799999999999862        0.24465590398543577
27.81999999999987         0.25467273366269105
27.83999999999987         0.2694707922630374
27.859999999999868        0.28988868534597856
27.879999999999868        0.3169983268576822
27.899999999999874        0.35183200731894454
27.919999999999874        0.3942839030776849
27.939999999999873        0.44045363130300386
27.959999999999866        0.4816671367307586
27.97999999999987         0.5114340451396633
27.99999999999986         0.5273022195074656
28.019999999999865        0.5319577702895467
28.039999999999868        0.5273689469568033
28.059999999999867        0.5115121886318253
28.079999999999874        0.48174644721522863
28.099999999999866        0.44070642037382785
28.11999999999986         0.3946736389242507
28.13999999999986         0.3521995010669047
28.159999999999854        0.3174238057089801
28.179999999999854        0.29037735554445443
28.199999999999857        0.27003006452997175
28.219999999999853        0.2553098320126309
28.239999999999853        0.24537787683274476
28.25999999999986         0.23966065571195969
28.27999999999986         0.23782884936812654
28.29999999999985         0.23977627228980894
28.319999999999858        0.24561213997229592
28.339999999999854        0.25566930414979694
28.359999999999854        0.2705261439239843
28.37999999999985         0.29102901205733506
28.399999999999856        0.3182406872858126
28.419999999999856        0.3532108664802636
28.439999999999866        0.39582900896226936
28.459999999999855        0.44217996111648733
28.47999999999986         0.48355628176573745
28.499999999999858        0.513441697583282
28.51999999999986         0.5293740421362327
28.539999999999857        0.5340492441067471
28.55999999999986         0.5294430617558519
28.579999999999853        0.51352426415479
28.599999999999856        0.48364212274231777
28.61999999999986         0.4424419420211028
28.639999999999855        0.39623032420012555
28.659999999999847        0.3536471119261537
28.67999999999985         0.31868179896035914
28.699999999999843        0.29153133597161557
28.719999999999843        0.2711062368594439
28.739999999999846        0.2563302131737865
28.75999999999984         0.24636121209827544
28.779999999999838        0.24062346314963098
28.799999999999848        0.2387863850565922
28.819999999999844        0.2407434214889557
28.839999999999847        0.24660428468681242
28.859999999999843        0.25670321097084897
28.879999999999843        0.2716209397016434
28.899999999999842        0.2922072594446552
28.919999999999845        0.3195505912692155
28.93999999999984         0.35469637170113716
28.95999999999984         0.39743134383027384
28.97999999999985         0.44397013772844285
28.99999999999985         0.48551521851602425
29.01999999999985         0.515523460051666
29.03999999999985         0.5315223202717174
29.059999999999846        0.5362179497441646
29.079999999999846        0.5315939398366861
29.099999999999845        0.515611094020414
29.11999999999984         0.485608483032996
29.13999999999984         0.4442423616192528
29.159999999999844        0.39784517996895036
29.179999999999836        0.3550914616588488
29.199999999999836        0.3200079274417928
29.219999999999832        0.2927280965311892
29.239999999999835        0.27222220687154264
29.259999999999835        0.25738824011202094
29.279999999999834        0.2473807417999087
29.299999999999837        0.24162162512565338
29.319999999999833        0.23977899461995955
29.33999999999984         0.24174589846963884
29.359999999999832        0.24763254743322746
29.379999999999832        0.2577746080119478
29.39999999999983         0.2727552623206886
29.419999999999828        0.29342784506239217
29.43999999999983         0.32088530664772236
29.459999999999837        0.3561774625218835
29.47999999999983         0.3991680514379698
29.499999999999833        0.4458235045193821
29.519999999999843        0.48754344490809354
29.539999999999836        0.5176790884152618
29.559999999999835        0.5337470702778913
29.579999999999835        0.5384639317877269
29.599999999999838        0.5338213099237071
29.619999999999834        0.5177718261965464
29.639999999999837        0.48764418683567345
29.65999999999983         0.44610606130284164
29.679999999999822        0.39951682015882917
29.699999999999832        0.3565867515070495
29.719999999999825        0.32135894031227985
29.739999999999824        0.2939718164818093
29.75999999999982         0.2733767799838096
29.779999999999816        0.25848393826528515
29.799999999999812        0.24843660389105268
29.819999999999826        0.2426553771844849
29.839999999999826        0.2408070084208289
29.85999999999982         0.24278414255370445
29.879999999999825        0.24869750909067084
29.89999999999982         0.2588842559402332
29.919999999999828        0.2739301065160476
29.93999999999982         0.2946920909493719
29.95999999999982         0.32226788574533666
29.97999999999982         0.3577118711725452
29.99999999999982         0.40088734929937836
30.019999999999822        0.4477385212999335
30.039999999999832        0.4895231096530564
30.059999999999828        0.5199111167706083
30.079999999999824        0.5360498316018776
30.09999999999982         0.5407880703927406
30.119999999999827        0.5361257706019769
30.13999999999982         0.5200069773784101
30.15999999999982         0.4897497169415665
30.179999999999815        0.4480334778553428
30.199999999999815        0.4012455840637034
30.21999999999982         0.3581332074611868
30.23999999999982         0.3227562633995734
30.25999999999981         0.29525360203332085
30.27999999999981         0.27457210557218803
30.299999999999812        0.25961518412860635
30.31999999999981         0.24952864367833968
30.339999999999808        0.24372447349041154
30.359999999999808        0.24187007118230974
30.379999999999814        0.2438576616667286
30.399999999999817        0.24979850571248152
30.419999999999817        0.26003127346757565
30.439999999999813        0.27514430124698647
30.45999999999981         0.2959984245962325
30.479999999999812        0.32369618621311635
30.499999999999808        0.35929666381008835
30.51999999999981         0.4026627382150971
30.53999999999981         0.449721282953463
30.55999999999981         0.491692010900099
30.579999999999814        0.5221590624006903
30.599999999999813        0.5384284738266555
30.619999999999813        0.5431889907583244
30.63999999999981         0.5385063165071595
30.659999999999815        0.5223157203161725
30.679999999999808        0.49192435564588977
30.699999999999804        0.4500239826480955
30.719999999999803        0.4030308935050527
30.739999999999803        0.35973026037219297
30.75999999999981         0.3241993063473522
30.77999999999981         0.29657730162887525
30.7999999999998          0.27580644535324683
30.8199999999998          0.260785339578509
30.8399999999998          0.25065447000080865
30.859999999999804        0.24482801343618038
30.879999999999804        0.24296717158569958
30.899999999999796        0.24496531715316777
30.919999999999803        0.2509342533576478
30.93999999999981         0.26121421381724985
30.959999999999802        0.27639622199203523
30.97999999999981         0.29734502844727634
30.9999999999998          0.32516818305511436
31.019999999999797        0.36092959862314405
31.0399999999998          0.4044917334085025
31.059999999999803        0.45176367059914463
31.0799999999998          0.4939260403482729
31.099999999999802        0.5245332011742243
31.119999999999806        0.5408777175941171
31.139999999999798        0.5456617488010143
31.159999999999798        0.5409584872106228
31.1799999999998          0.5246924704702992
31.199999999999797        0.4941624421378176
31.219999999999796        0.4520721300173746
31.239999999999796        0.4048679471334546
31.259999999999803        0.361373869627108
31.279999999999795        0.3256846721038071
31.299999999999795        0.2979400193427457
31.319999999999794        0.2770772976027216
31.33999999999979         0.26199015922286106
31.35999999999979         0.251815258389081
31.37999999999979         0.24596335861839888
31.39999999999979         0.24409658283478894
31.419999999999796        0.2461054530595717
31.439999999999802        0.2521031233849584
31.459999999999802        0.26243143775301453
31.4799999999998          0.27768417965668196
31.49999999999979         0.29873012121837933
31.51999999999979         0.3266819560978664
31.53999999999979         0.3626085663138444
31.55999999999979         0.4063719919574806
31.579999999999796        0.4538630980116424
31.59999999999979         0.4962224341836989
31.619999999999788        0.5269737268668527
31.639999999999787        0.5433965029811428
31.659999999999794        0.5482043672120624
31.67999999999978         0.5434798029047795
31.699999999999783        0.5271380855746074
31.719999999999775        0.49646632753402775
31.73999999999978         0.45418121300767617
31.75999999999979         0.40675964541749665
31.77999999999978         0.36306600995499216
31.799999999999766        0.3272135628730175
31.819999999999773        0.29934244715842284
31.83999999999978         0.27838505739035474
31.859999999999783        0.26322988246071233
31.879999999999775        0.25300959565863973
31.899999999999775        0.247132263342669
31.919999999999774        0.2452584722381722
31.939999999999774        0.24727907357451365
31.95999999999978         0.25330538328088065
31.979999999999766        0.26368329890461273
31.999999999999773        0.2790086347304403
32.019999999999776        0.3001542936943102
32.03999999999977         0.3282382546150855
32.05999999999978         0.36433450689338454
32.079999999999764        0.4083046660593651
32.099999999999774        0.4560208896172875
32.11999999999978         0.49858255371562676
32.13999999999979         0.5294818906475527
32.159999999999776        0.5459849813259249
32.17999999999978         0.5508170952557101
32.19999999999978         0.5460701467459227
32.21999999999978         0.5297082789274642
32.239999999999775        0.4988319833253317
32.25999999999977         0.4563464378401376
32.27999999999976         0.4087018562153773
32.29999999999977         0.36480377552819987
32.319999999999766        0.328784125676517
32.33999999999977         0.30078348968656005
32.359999999999765        0.27972916949823606
32.37999999999977         0.26450436753581247
32.399999999999764        0.25423765943868687
32.419999999999774        0.2483343564185121
32.43999999999976         0.24645348510719475
32.459999999999766        0.24848542535111856
32.47999999999977         0.25454367532714717
32.499999999999766        0.26497312054908484
32.51999999999976         0.28037104536909563
32.539999999999765        0.3016192487538093
32.55999999999977         0.32983906620000825
32.57999999999977         0.36610974274349245
32.59999999999977         0.41029246265294284
32.619999999999784        0.4582401587285595
32.63999999999977         0.5010098901249251
32.659999999999776        0.5320615203265783
32.67999999999977         0.548647337456951
32.699999999999775        0.5535046979020722
32.71999999999977         0.5487353847316158
32.73999999999976         0.5322940719139471
32.75999999999977         0.5013922784278512
32.77999999999977         0.45857697841306705
32.79999999999976         0.410702945970134
32.81999999999976         0.36659426541398993
32.83999999999976         0.3304024677462371
32.85999999999975         0.3022686411158842
32.879999999999754        0.2811148114446946
32.89999999999975         0.2658187069914536
32.919999999999746        0.2555046341903789
32.93999999999975         0.24957504001892747
32.95999999999975         0.24768734697942213
32.97999999999975         0.2497314577927238
32.999999999999744        0.2558214866716941
33.019999999999754        0.2663040774910567
33.03999999999976         0.28178062771023993
33.059999999999754        0.3031340433230626
33.07999999999976         0.3314945838370495
33.09999999999975         0.36794582011036037
33.119999999999756        0.412348490605096
33.13999999999975         0.4605356763870473
33.15999999999977         0.5035207137670301
33.17999999999975         0.5347299155790973
33.199999999999754        0.5514011753570492
33.21999999999976         0.5562840742194339
33.23999999999975         0.5514902748518697
33.25999999999975         0.5349647716934014
33.27999999999975         0.5039070903970747
33.29999999999976         0.46088322566516515
33.31999999999975         0.41268730374287627
33.33999999999976         0.36844300197076685
33.359999999999744        0.332074758568285
33.37999999999975         0.30380442579896455
33.39999999999975         0.282548655085968
33.41999999999974         0.26717961721598293
33.43999999999974         0.2568172657843402
33.45999999999974         0.25086109822887415
33.47999999999974         0.24896690526815202
33.49999999999974         0.25102412795739093
33.51999999999974         0.25714754275157276
33.539999999999736        0.26768563311526394
33.55999999999974         0.2832429341839691
33.57999999999973         0.3047022803654226
33.599999999999746        0.3332137113789337
33.61999999999974         0.3698524885540837
33.63999999999974         0.41448355947247706
33.659999999999734        0.46291951970368794
33.679999999999744        0.5061284637373128
33.69999999999976         0.5375017487246967
33.71999999999974         0.5542622838590792
33.739999999999746        0.55917227531875
33.75999999999975         0.5543537926906317
33.77999999999975         0.5377418188833406
33.79999999999974         0.5065229980275634
33.819999999999744        0.46327741946346285
33.83999999999975         0.41483532233305165
33.859999999999744        0.37030845487380293
33.87999999999975         0.33381422043606174
33.89999999999973         0.3054016651757361
33.91999999999973         0.28403969757185243
33.93999999999973         0.26859467824377614
33.95999999999973         0.25818202147882435
33.97999999999973         0.25219811832280076
33.99999999999973         0.2502970236489405
34.01999999999973         0.25236768780297036
34.03999999999973         0.2585255706376076
34.05999999999975         0.2691210594838613
34.07999999999973         0.2847619390355714
34.099999999999724        0.30633575967552984
34.119999999999735        0.3349763615932488
34.13999999999972         0.3717736825754734
34.15999999999973         0.41669949131061595
34.17999999999973         0.46539342321999116
34.19999999999973         0.5088348653601589
34.21999999999974         0.540378764007664
34.239999999999746        0.5572324163327353
34.259999999999735        0.5621710179629982
34.27999999999973         0.5573275326822984
34.299999999999734        0.5406265934857382
34.31999999999973         0.5092411746016602
34.339999999999726        0.4657658735890507
34.35999999999973         0.417068112976595
34.379999999999725        0.37230741903954384
34.39999999999972         0.3356000432362934
34.41999999999974         0.30706215041021473
34.43999999999973         0.28558996698416145
34.459999999999724        0.27006615581928495
34.47999999999971         0.25960141298583184
34.49999999999973         0.25358890336204837
34.519999999999726        0.25168084393358314
34.53999999999972         0.2537656609946276
34.55999999999971         0.25995953152275847
34.57999999999972         0.27061483048757234
34.59999999999974         0.28634272894838264