% Model:              Untitled.mph
% Version:            COMSOL 5.6.0.280
% Date:               Oct 14 2021, 22:13
% Dimension:          1
% Nodes:              994
% Expressions:        1
% Description:        线图
% cln1x                   Height
49.24999999999999         0.20688805300873803
49.260000000000076        0.20544799484341858
49.280000000000086        0.20341124623576576
49.300000000000104        0.20249606731875328
49.32000000000011         0.20275436120524953
49.34000000000012         0.20430855145687718
49.36000000000011         0.20736856620796615
49.38000000000013         0.21225767442963953
49.400000000000134        0.21944560809888813
49.420000000000144        0.2295718889673856
49.440000000000154        0.2433818196957822
49.460000000000164        0.2613438200509136
49.48000000000015         0.2823491960837932
49.50000000000016         0.30283457488764587
49.520000000000174        0.31886777027166335
49.540000000000205        0.32817750377382227
49.560000000000194        0.3308680590526125
49.58000000000019         0.32745256769438563
49.60000000000019         0.31732081956755764
49.62000000000021         0.3002455356088957
49.6400000000002          0.2784157595029609
49.66000000000021         0.2558064754637185
49.680000000000234        0.23603742190262483
49.70000000000021         0.22022265560200152
49.72000000000022         0.20797053099827292
49.74000000000024         0.19855578708624685
49.760000000000254        0.1913385329415945
49.78000000000025         0.1858330034140277
49.80000000000025         0.18168963974785846
49.82000000000027         0.1786642139749497
49.840000000000266        0.17659239345905
49.86000000000028         0.17537238718254253
49.88000000000028         0.17495453082810627
49.90000000000029         0.17533646972572536
49.92000000000031         0.17656323706353974
49.940000000000296        0.17873226362221212
49.96000000000031         0.18200400822836235
49.98000000000032         0.18661946012986505
50.00000000000033         0.19292506851108135
50.02000000000034         0.20140768870661674
50.04000000000033         0.21270919934385915
50.060000000000365        0.22755511123783176
50.08000000000035         0.24632278757478104
50.10000000000036         0.2678516223783069
50.12000000000035         0.28852544311879114
50.140000000000356        0.30451994248090697
50.160000000000366        0.31374821662651214
50.18000000000036         0.3164823164270917
50.20000000000038         0.3133415239222733
50.22000000000038         0.3037029015565579
50.240000000000386        0.2872453019063385
50.260000000000396        0.2660186517642753
50.280000000000406        0.2439372036317365
50.300000000000416        0.22455106506323766
50.320000000000405        0.2090503620471708
50.34000000000043         0.19707342144893297
50.36000000000043         0.18790504237747033
50.38000000000044         0.18090810535102889
50.400000000000446        0.17559957356739647
50.42000000000046         0.1716324307230816
50.44000000000047         0.16876470883604844
50.46000000000046         0.16683425610751934
50.48000000000047         0.16574145538728716
50.500000000000476        0.16543876498702859
50.520000000000486        0.16592585219523584
50.54000000000049         0.16724965888039836
50.56000000000051         0.16950904151891555
50.58000000000051         0.1728665849456094
50.60000000000052         0.17756441991543848
50.62000000000053         0.18395044369201435
50.640000000000526        0.19250858554010322
50.66000000000054         0.2038749511686775
50.68000000000056         0.21875797933839622
50.70000000000054         0.23750130854510806
50.72000000000055         0.2589004706734538
50.740000000000556        0.2793307411003722
50.76000000000056         0.29504105797942287
50.78000000000056         0.3040468756347319
50.800000000000566        0.3066982595079464
50.82000000000058         0.30364535770979895
50.84000000000057         0.2942219780555039
50.860000000000575        0.2780671482534156
50.88000000000058         0.25716272492217707
50.9000000000006          0.23524979614847377
50.92000000000062         0.2159525370468793
50.94000000000062         0.20048677998118855
50.96000000000063         0.18852147969923458
50.980000000000636        0.17935735246196807
51.00000000000064         0.1723641481436625
51.02000000000065         0.1670614336594481
51.04000000000065         0.16310305078954396
51.06000000000068         0.1602472639251156
51.080000000000666        0.15833197917577935
51.10000000000067         0.15725765370564443
51.12000000000067         0.15697671579078612
51.14000000000069         0.1574890440774977
51.16000000000069         0.15884170529804637
51.1800000000007          0.16113399705948353
51.20000000000071         0.16452792238516972
51.22000000000071         0.16926533653777015
51.24000000000071         0.1756925949069742
51.26000000000073         0.1842895842236149
51.28000000000072         0.19568308475203128
51.30000000000074         0.21056232153525484
51.32000000000075         0.22923758100767147
51.34000000000075         0.25046664243728944
51.36000000000075         0.27062841704534835
51.380000000000734        0.2860760343041463
51.40000000000074         0.29484862487882335
51.42000000000074         0.29742623525780393
51.440000000000765        0.29446690275304127
51.46000000000077         0.28527874733068975
51.48000000000077         0.2694365270253733
51.50000000000078         0.2488292639372076
51.52000000000079         0.22712055057486344
51.540000000000816        0.2079308171721094
51.56000000000083         0.1925111769261146
51.58000000000084         0.18056180533501415
51.60000000000083         0.17140138964124946
51.62000000000085         0.16440836560001004
51.64000000000084         0.15910612149383468
51.66000000000085         0.15515044084373372
51.68000000000085         0.15229932764127285
51.70000000000087         0.15039149010905936
51.72000000000089         0.1493274493475924
51.74000000000088         0.14905980228378152
51.760000000000886        0.14958838346365524
51.7800000000009          0.15096028449021032
51.800000000000885        0.15327472144463505
51.82000000000092         0.15669332951514495
51.840000000000906        0.1614568990879963
51.860000000000916        0.16790918907372337
51.880000000000926        0.17652455272825532
51.90000000000094         0.1879187247827592
51.92000000000093         0.20274148742106846
51.94000000000094         0.22129417844745897
51.960000000000946        0.24232805930836726
51.98000000000094         0.2622344330060098
52.00000000000094         0.2773566005728206
52.020000000000934        0.2859222448937248
52.04000000000095         0.28843154386582903
52.06000000000094         0.28555351904814336
52.08000000000096         0.2765862252397065
52.10000000000098         0.2610552568151496
52.12000000000098         0.240767949243365
52.140000000000995        0.21929755582445998
52.160000000001           0.20024521392135278
52.18000000000104         0.18489185460976001
52.20000000000103         0.17296906681108096
52.22000000000105         0.1638199524769323
52.24000000000106         0.15683006406048758
52.26000000000104         0.1515291522964768
52.28000000000106         0.14757543667042225
52.30000000000107         0.1447289885494088
52.32000000000107         0.14282844543207032
52.34000000000109         0.14177454415311952
52.36000000000108         0.14151997406146885
52.380000000001104        0.1420645914343438
52.40000000000111         0.143455427010897
52.42000000000112         0.14579147442836282
52.44000000000114         0.14923379459543878
52.46000000000112         0.15402183859142565
52.48000000000113         0.16049694006241985
52.50000000000115         0.16912436399478578
52.52000000000115         0.18050559497405186
52.54000000000114         0.19528347409555574
52.560000000001146        0.21370910953662983
52.58000000000116         0.23451312993625462
52.600000000001124        0.254110729556462
52.62000000000113         0.26893950784600057
52.64000000000112         0.277306424884303
52.66000000000113         0.27975447490002453
52.68000000000113         0.2769588619622622
52.700000000001125        0.26821113227674076
52.72000000000114         0.2529930316155945
52.74000000000116         0.23302304662301299
52.760000000001185        0.2117861131639431
52.7800000000012          0.19289799374308864
52.80000000000121         0.17763466830937244
52.82000000000125         0.16575376330910785
52.84000000000124         0.15661942187062794
52.86000000000126         0.14963555795850572
52.880000000001246        0.1443380250844059
52.90000000000125         0.14038801524678027
52.92000000000126         0.13754703244710859
52.94000000000126         0.13565438192329307
52.96000000000128         0.1346110742818403
52.98000000000128         0.13436987678766021
53.00000000000127         0.13493059822048753
53.02000000000129         0.13634032806619228
53.0400000000013          0.13869726528865153
53.06000000000132         0.14216165530266078
53.08000000000131         0.14697093874480716
53.10000000000133         0.15346171674271375
53.120000000001326        0.16209349644233206
53.14000000000133         0.1734531257623877
53.16000000000133         0.18816004615293136
53.180000000001336        0.20643351962430634
53.20000000000134         0.22698166070375644
53.22000000000133         0.2462502509255724
53.24000000000134         0.2607737647251046
53.26000000000132         0.2689361832890185
53.28000000000132         0.27131911735089853
53.300000000001326        0.26860312674442627
53.32000000000134         0.26009483497811825
53.34000000000136         0.24520790621285973
53.360000000001385        0.2255576089011305
53.38000000000139         0.2046026586100745
53.400000000001405        0.18589503737174307
53.420000000001416        0.17073220376810952
53.440000000001426        0.15890259131289092
53.460000000001436        0.14979320224041437
53.48000000000145         0.14282167140526414
53.500000000001464        0.13753131659799128
53.52000000000147         0.13358718795358285
53.54000000000147         0.13075272105794092
53.56000000000147         0.12886806583900187
53.58000000000149         0.12783506083397458
53.60000000000149         0.127606512778001
53.62000000000149         0.12818233100055393
53.6400000000015          0.1296091623901003
53.66000000000151         0.13198491329201997
53.680000000001506        0.1354683893480137
53.700000000001516        0.14029457427729614
53.720000000001534        0.1467954664604272
53.74000000000154         0.15542209546641758
53.76000000000154         0.1667463776982121
53.78000000000154         0.18136393074851404
53.80000000000154         0.19946363956251734
53.82000000000152         0.21973525809988845
53.840000000001524        0.23862645277999212
53.860000000001506        0.25284896939280366
53.880000000001495        0.2608275019917506
53.90000000000151         0.2631479804123611
53.920000000001515        0.2605111577956046
53.94000000000152         0.2522247514459474
53.96000000000155         0.23766806403097163
53.98000000000156         0.21838289976510444
54.000000000001606        0.19772937048710962
54.020000000001595        0.17922249050690986
54.040000000001605        0.16417677402548375
54.060000000001615        0.15241031814257627
54.080000000001625        0.14333365699371145
54.10000000000166         0.13637926789960303
54.120000000001646        0.13109831546203116
54.14000000000165         0.12716192088769265
54.16000000000166         0.12433510927170392
54.18000000000168         0.12245941410601086
54.20000000000168         0.12143695394818259
54.22000000000169         0.12122091843308587
54.24000000000169         0.12181101743413378
54.260000000001696        0.12325344559571694
54.28000000000169         0.12564534725628332
54.30000000000171         0.12914412652706564
54.3200000000017          0.1339820191584326
54.340000000001744        0.14048578555743588
54.36000000000174         0.14909709611672475
54.380000000001736        0.16037934909811666
54.40000000000174         0.174902387845425
54.42000000000174         0.19281995753470663
54.44000000000174         0.21277591191005027
54.4600000000017          0.23130329121391524
54.48000000000171         0.24521075815406085
54.50000000000172         0.2529829970275555
54.52000000000173         0.25523949529799816
54.54000000000171         0.25268260755823435
54.560000000001736        0.24461986854878154
54.58000000000174         0.23039916086967846
54.600000000001764        0.21149086345772172
54.620000000001816        0.19115543779370378
54.640000000001805        0.1728671256626431
54.66000000000182         0.15796132216271108
54.680000000001826        0.1462639350690668
54.700000000001836        0.13722625215832063
54.72000000000186         0.13029390204171065
54.740000000001864        0.12502686527308923
54.76000000000186         0.12109969792929436
54.780000000001856        0.11828110884341432
54.800000000001866        0.11641420362983007
54.82000000000188         0.1154018902723943
54.84000000000189         0.11519764646196423
54.860000000001904        0.11580107191545692
54.8800000000019          0.11725781184833453
54.9000000000019          0.11966381947324052
54.920000000001934        0.1231742938498895
54.940000000001916        0.12801696916502808
54.960000000001955        0.1345144194204482
54.98000000000194         0.1430986624680231
55.00000000000195         0.15431197015748455
55.020000000001936        0.16870494492414118
55.040000000001946        0.1864030299203872
55.060000000001935        0.20604005394194988
55.080000000001924        0.22419537069896744
55.10000000000192         0.23777893002259434
55.12000000000192         0.24534248524192367
55.140000000001905        0.247535533658742
55.16000000000192         0.24506022462285174
55.18000000000193         0.23722504442963604
55.20000000000194         0.2233138695651617
55.22000000000198         0.20484082342987447
55.24000000000201         0.18486752367306658
55.260000000002016        0.16681023318693508
55.280000000002026        0.1520383545742801
55.30000000000206         0.14043262273139492
55.320000000002054        0.13144800351042366
55.34000000000207         0.12454639177991562
55.36000000000208         0.11929792902469023
55.380000000002084        0.11538322050370847
55.400000000002066        0.11257449715932487
55.42000000000209         0.11071689288238615
55.4400000000021          0.10971443713683733
55.46000000000211         0.10952106036475699
55.48000000000213         0.1101360857425553
55.500000000002125        0.11160467582360355
55.52000000000214         0.114021377835504
55.54000000000214         0.11753902848303843
55.56000000000215         0.12238218702474263
55.580000000002165        0.1288650585414484
55.60000000000216         0.13740914243292637
55.62000000000217         0.1485396499130233
55.64000000000217         0.16278386172661566
55.660000000002164        0.1802426958512419
55.68000000000215         0.19954422032465016
55.70000000000214         0.21731761567428826
55.72000000000212         0.2305729822866139
55.740000000002105        0.23792693425318756
55.7600000000021          0.24005632979125785
55.780000000002104        0.2376610012708448
55.80000000000213         0.23003238301887521
55.82000000000214         0.21648994350335604
55.84000000000217         0.19841759241777823
55.86000000000221         0.1787998951383196
55.88000000000223         0.1610036396989561
55.90000000000223         0.14640351611751343
55.920000000002254        0.1349042361982439
55.94000000000226         0.1259837752628945
55.960000000002275        0.11912079476692251
55.98000000000227         0.11389633921484535
56.000000000002295        0.10999771995895699
56.02000000000229         0.1072014142724735
56.04000000000231         0.10535411089684173
56.06000000000232         0.10436138397820001
56.080000000002315        0.10417755418345558
56.10000000000234         0.10480199321768553
56.12000000000233         0.10627904119196703
56.14000000000233         0.10870184084563299
56.16000000000235         0.11222043582966258
56.180000000002345        0.11705468842884775
56.200000000002376        0.12351128530537354
56.22000000000237         0.1320000271524003
56.24000000000237         0.14302881761081793
56.26000000000235         0.15710206587244047
56.28000000000235         0.17429822910315204
56.300000000002356        0.1932369190366649
56.32000000000234         0.21065784048198155
56.34000000000232         0.22356423813409182
56.36000000000231         0.2306855903537973
56.38000000000231         0.23274990109407942
56.40000000000232         0.2304358005447366
56.420000000002354        0.2230363762491959
56.44000000000235         0.20984711263936554
56.460000000002374        0.19218985369505323
56.4800000000024          0.17294905176945588
56.50000000000243         0.155437460339944
56.520000000002454        0.14103102262672476
56.54000000000246         0.12965647552041837
56.560000000002475        0.12081433130863008
56.5800000000025          0.11400113703718294
56.60000000000249         0.10880787146353743
56.62000000000249         0.1049300383550753
56.64000000000251         0.10214853683228371
56.66000000000251         0.1003134605402658
56.68000000000252         0.09933139453678387
56.700000000002525        0.099157197305537
56.72000000000254         0.0997899675477965
56.74000000000253         0.10127291721217659
56.76000000000256         0.10369714021597246
56.78000000000255         0.10720953315322307
56.800000000002555        0.11202506503756082
56.82000000000258         0.11844261448257667
56.84000000000256         0.12685825603268702
56.86000000000257         0.1377598757863826
56.880000000002575        0.15162803576589678
56.90000000000257         0.16853015524776693
56.92000000000255         0.18712628596043543
56.94000000000255         0.20413957175839442
56.96000000000253         0.21670481703425337
56.98000000000252         0.22361294971747597
57.000000000002515        0.22561285605571302
57.02000000000251         0.2233796493632401
57.04000000000255         0.21621045064924896
57.06000000000255         0.2033793384692041
57.080000000002585        0.18614812456840638
57.100000000002616        0.1673012443046415
57.12000000000265         0.1500744749797468
57.14000000000267         0.13589467383402823
57.16000000000268         0.1246689834910859
57.180000000002686        0.11592177399117753
57.20000000000273         0.10916828319090699
57.2200000000027          0.10401423467089203
57.24000000000271         0.10016268493496536
57.26000000000271         0.09739958598470415
57.28000000000271         0.09557811995102164
57.30000000000274         0.09460660513206878
57.32000000000274         0.09444062341407745
57.34000000000276         0.09507909745188739
57.36000000000275         0.09656412586285203
57.38000000000277         0.09898457316904387
57.400000000002784        0.10248423729672564
57.42000000000277         0.10727092464705394
57.44000000000279         0.11363486508472417
57.4600000000028          0.12196033623637811
57.4800000000028          0.1327186309393313
57.5000000000028          0.1463693735879664
57.52000000000279         0.16296294053586993
57.54000000000277         0.18116581864240117
57.560000000002745        0.19776050068358397
57.58000000000272         0.20998089455829602
57.60000000000271         0.21667606526215194
57.62000000000272         0.21861214188167713
57.6400000000027          0.21645973661310983
57.66000000000275         0.20954250517648526
57.680000000002764        0.19708942720513886
57.70000000000278         0.18025260915858032
57.72000000000283         0.16179243436219926
57.74000000000285         0.14492290276655795
57.76000000000287         0.13097967733417248
57.78000000000289         0.11991679195609076
57.80000000000289         0.11127895008622109
57.82000000000292         0.10459831296398564
57.84000000000291         0.09949292480404133
57.86000000000291         0.09567425613688503
57.88000000000292         0.09293376231604865
57.90000000000294         0.09112803934302134
57.92000000000294         0.09016729357650752
57.940000000002954        0.09000787532936631
57.96000000000297         0.09064845329580049
57.98000000000297         0.09212990586711582
58.00000000000297         0.09453875125707123
58.02000000000298         0.09801414373245054
58.04000000000298         0.1027588824322873
58.06000000000301         0.10905365464747019
58.080000000003004        0.11726982680584251
58.10000000000301         0.127861652664409
58.120000000003           0.14126932036825213
58.14000000000299         0.15752862514610397
58.16000000000298         0.1753158280311339
58.180000000002956        0.1914757659232149
58.20000000000292         0.2033419941770377
58.22000000000292         0.20981916484958643
58.240000000002915        0.21169122244334104
58.26000000000293         0.20962132828784935
58.28000000000294         0.20293732738316647
58.30000000000295         0.1908553216143281
58.320000000003           0.17447000729896203
58.340000000003016        0.1564423644525162
58.36000000000305         0.1399245094306737
58.380000000003086        0.12624241131654965
58.40000000000309         0.11536459433421066
58.42000000000311         0.1068549682513826
58.44000000000313         0.10026226110617388
58.46000000000312         0.09521694755766352
58.48000000000312         0.09143877094356437
58.50000000000313         0.08872617650798402
58.52000000000315         0.08693882684383727
58.540000000003154        0.08598907020525318
58.56000000000316         0.08583405004154297
58.580000000003174        0.08647212825915329
58.60000000000316         0.08794272031554064
58.62000000000318         0.09032952461347901
58.640000000003184        0.09376733247592942
58.660000000003194        0.09845253512806486
58.68000000000321         0.10465657152379525
58.7000000000032          0.11273794428969836
58.72000000000321         0.123134177629987
58.74000000000321         0.13626665209596636
58.760000000003195        0.15218711532982854
58.780000000003184        0.1695021431654337
58.80000000000315         0.1851637057680289
58.82000000000311         0.19668119870900322
58.84000000000314         0.20295883495973502
58.860000000003126        0.20476570148669113
58.88000000000313         0.2027772702569291
58.90000000000316         0.19632901360095237
58.92000000000317         0.18462569721065947
58.9400000000032          0.16870724945783336
58.96000000000325         0.15113263285423695
58.98000000000325         0.13498729091330705
59.00000000000328         0.12158415094308743
59.0200000000033          0.11090414903226033
59.04000000000332         0.10252883469834802
59.06000000000334         0.09602288517308528
59.08000000000333         0.09102944921231762
59.10000000000334         0.0872766371456025
59.120000000003344        0.08456696397781896
59.140000000003354        0.08276366435996972
59.16000000000335         0.08178005985207953
59.18000000000336         0.08157259802989386
59.20000000000338         0.08213735713338739
59.22000000000338         0.08350978531980252
59.240000000003384        0.08576769402447121
59.26000000000339         0.08903771845152442
59.2800000000034          0.0935053821674473
59.30000000000338         0.09942785596312005
59.320000000003425        0.10714883670544217
59.34000000000343         0.11708709742232547
59.36000000000342         0.1296464894141281
59.380000000003406        0.14483405413933859
59.40000000000338         0.16134465734360537
59.42000000000337         0.17622462913289835
59.44000000000334         0.18713362078104404
59.46000000000334         0.1930473702080738
59.48000000000333         0.19474296162159357
59.500000000003325        0.19287855759621966
59.52000000000335         0.1868062955260158
59.540000000003374        0.1757250404441665
59.560000000003406        0.1606023873206041
59.580000000003444        0.14387315825567837
59.600000000003476        0.12844601162123545
59.6200000000035          0.11563002995806064
59.64000000000353         0.10542167816666226
59.66000000000352         0.09742009734912098
59.680000000003524        0.09120776042867539
59.70000000000354         0.08644331272416507
59.72000000000355         0.08286865895914493
59.74000000000355         0.08029694672678826
59.76000000000356         0.07859940262522211
59.78000000000356         0.07769516444365242
59.800000000003564        0.07754466536471874
59.82000000000358         0.07814635959376609
59.840000000003585        0.07953657709509407
59.8600000000036          0.08179202899091746
59.880000000003584        0.08503760146790897
59.9000000000036          0.08945390830460719
59.92000000000362         0.09529116241614531
59.940000000003614        0.10288038271968529
59.96000000000364         0.1126262199081065
59.98000000000365         0.12491577491281478
60.00000000000362         0.13974483840091875
60.0200000000036          0.15582266456716076
60.04000000000358         0.1702628707369287
60.06000000000355         0.18082200484600447
60.080000000003544        0.1865247805379776
60.100000000003526        0.18815624910202147
60.12000000000353         0.18636457282793809
60.140000000003546        0.18049164455005745
60.16000000000358         0.16975030255301102
60.1800000000036          0.15511462997371359
60.20000000000365         0.13882595299884723
60.22000000000368         0.123766934770372
60.2400000000037          0.11122889605019493
60.260000000003714        0.10121919615232251
60.280000000003724        0.09335367057492357
60.30000000000373         0.08722938240476753
60.32000000000375         0.08251577819644318
60.34000000000376         0.07896205272309101
60.36000000000376         0.07638580669073489
60.38000000000376         0.07466049224908836
60.40000000000378         0.0737057367435821
60.42000000000378         0.07348064583910256
60.440000000003806        0.07398118373609787
60.460000000003795        0.07523944081373266
60.48000000000381         0.07732655774617955
60.50000000000382         0.08035861704193735
60.520000000003805        0.08450585381209244
60.54000000000382         0.09000466196635742
60.56000000000382         0.09716860205346767
60.58000000000384         0.10638179380355067
60.60000000000383         0.1180118535388486
60.620000000003834        0.13205002926781448
60.6400000000038          0.1472483665752951
60.660000000003784        0.16084509537774444
60.680000000003744        0.1707705326655327
60.70000000000374         0.17606764079851941
60.72000000000373         0.17758042523602957
60.74000000000374         0.17592027506984345
60.76000000000376         0.17044865008284465
60.78000000000378         0.16036942650923733
60.80000000000382         0.14658278179643255
60.820000000003866        0.1311730504319003
60.8400000000039          0.11690062955693466
60.860000000003915        0.10501594691552832
60.880000000003925        0.09553092457690243
60.900000000003956        0.08808001533814469
60.920000000003974        0.08227977575973856
60.94000000000397         0.07781665248074371
60.96000000000397         0.07445113796554464
60.980000000003976        0.0720109326163192
61.000000000003986        0.07037598394037808
61.02000000000399         0.06946991862909307
61.04000000000399         0.0692539940092857
61.06000000000403         0.06972406407738137
61.08000000000401         0.07091036099542955
61.10000000000402         0.07288004089785172
61.12000000000403         0.07574270732864449
61.140000000004044        0.07965917372944852
61.16000000000406         0.08485293584796519
61.18000000000405         0.09162075817751938
61.20000000000407         0.10032651838221537
61.220000000004056        0.11130118609835747
61.24000000000403         0.12456190933895271
61.260000000004           0.13893674757630514
61.28000000000399         0.1517794799091484
61.300000000003955        0.16107286533598605
61.320000000003944        0.16603234448513765
61.340000000003926        0.1674453708692899
61.360000000003936        0.16589805540039626
61.380000000003946        0.16077853592383154
61.40000000000398         0.15130831298194905
61.42000000000402         0.13832574675565637
61.44000000000406         0.12377988396443655
61.460000000004094        0.11029487853064314
61.48000000000412         0.0990663599631779
61.50000000000414         0.09010623215737333
61.52000000000417         0.08307313420189759
61.540000000004156        0.07759887153186311
61.56000000000417         0.07338701002922765
61.58000000000418         0.07021263100528319
61.60000000000419         0.06791218006308375
61.62000000000419         0.06637217584730114
61.64000000000419         0.06552043836937871
61.6600000000042          0.06532034444332457
61.68000000000423         0.06576793652074751
61.700000000004216        0.06689170758861172
61.72000000000422         0.06875505262080255
61.74000000000423         0.07146152546261193
61.76000000000425         0.07516361568557718
61.78000000000425         0.08007076152704665
61.800000000004246        0.08646267791426081
61.820000000004256        0.09468091153236972
61.84000000000427         0.10505255227410262
61.86000000000425         0.11757568083859321
61.88000000000421         0.13114921008105693
61.900000000004205        0.14327372257604676
61.92000000000415         0.1520464408441084
61.940000000004154        0.15672761085613637
61.960000000004136        0.15806237596123643
61.98000000000414         0.1566046870214682
62.000000000004164        0.15177652221884172
62.02000000000419         0.14284125797989156
62.04000000000423         0.130590568704511
62.06000000000425         0.11683714891520566
62.0800000000043          0.10411431569748807
62.100000000004336        0.09352546130804026
62.12000000000435         0.08507502854033538
62.14000000000436         0.07843759791062332
62.160000000004366        0.07327211086420132
62.18000000000437         0.0692987214062985
62.200000000004394        0.06630511233729348
62.22000000000439         0.06413691074409981