% Model:              Untitled.mph
% Version:            COMSOL 5.6.0.280
% Date:               Oct 14 2021, 22:13
% Dimension:          1
% Nodes:              994
% Expressions:        1
% Description:        线图
% cln2x                   Height
21.91                     0.03899379031476176
21.920000000000027        0.03904383341556055
21.94000000000003         0.03943848958038128
21.96000000000003         0.040243782923675295
21.980000000000036        0.04149983498492395
22.00000000000004         0.04327118961191285
22.020000000000042        0.04565187592166685
22.040000000000045        0.04877197652055023
22.060000000000045        0.052803579608783145
22.080000000000048        0.057956986405214864
22.100000000000048        0.06443347839095226
22.12000000000006         0.07224557291750953
22.140000000000054        0.08067219799250426
22.16000000000005         0.08819611370366066
22.180000000000042        0.09368337786175936
22.20000000000005         0.0966444291267523
22.22000000000005         0.09753117920299098
22.240000000000055        0.09669713381574233
22.260000000000062        0.09379813160638578
22.280000000000076        0.08837207862363672
22.300000000000065        0.08087374691982954
22.320000000000068        0.07247483994239272
22.340000000000067        0.0647182322395576
22.360000000000074        0.05828468827330573
22.38000000000007         0.05317629356532604
22.40000000000007         0.04919159741085474
22.420000000000076        0.04612010965980873
22.440000000000087        0.04378991105410892
22.46000000000009         0.042070627819304714
22.480000000000093        0.040868188665262366
22.500000000000092        0.040118161614600543
22.520000000000092        0.03978066023075462
22.54000000000009         0.03983707690953549
22.560000000000088        0.040288532978423885
22.58000000000009         0.041155944882129425
22.6000000000001          0.04248170958003454
22.620000000000104        0.04433311488018275
22.640000000000107        0.046807579828190685
22.6600000000001          0.05003928660135249
22.680000000000106        0.05420694367386188
22.700000000000113        0.05952782576796916
22.720000000000105        0.06620986673092798
22.74000000000011         0.07424581130943289
22.76000000000011         0.08292032722571717
22.78000000000011         0.09066248505654696
22.800000000000107        0.09630713492585985
22.820000000000107        0.09935196891489165
22.840000000000114        0.10026283397875778
22.860000000000113        0.0994042406099617
22.880000000000116        0.09642315976037447
22.900000000000134        0.09084517664762631
22.920000000000126        0.08313829278258511
22.940000000000126        0.07452157969713359
22.96000000000013         0.06654791888404897
22.98000000000013         0.059932882362288685
23.00000000000013         0.054683743925920604
23.020000000000127        0.05059236899061573
23.040000000000138        0.04744104336818583
23.060000000000144        0.04505208280139687
23.080000000000144        0.043291498094126954
23.100000000000147        0.042062648086220365
23.12000000000015         0.04129938659501285
23.14000000000015         0.04096082626671724
23.160000000000156        0.04102798397187026
23.180000000000152        0.04150219379046052
23.200000000000156        0.04240518400809197
23.220000000000166        0.04378057211839585
23.24000000000016         0.04569828964924901
23.26000000000016         0.04825884816839718
23.28000000000016         0.05160112700134079
23.30000000000017         0.055908741777938295
23.320000000000174        0.061406258698177424
23.340000000000163        0.06830813794097503
23.36000000000017         0.07660663739065637
23.380000000000173        0.08556311744501655
23.400000000000166        0.0935560109325898
23.42000000000017         0.09938303522981184
23.44000000000017         0.10252614884001157
23.460000000000164        0.10346660299097221
23.48000000000017         0.1025808329785158
23.500000000000178        0.09949470104732927
23.520000000000184        0.093728212095282
23.54000000000019         0.08579923543993737
23.56000000000019         0.07691115212002818
23.58000000000019         0.06868688561879312
23.60000000000019         0.06186530187526939
23.6200000000002          0.05645375399583988
23.640000000000196        0.052237396442597075
23.6600000000002          0.04899152304684713
23.680000000000213        0.04653275074421552
23.70000000000021         0.04472283093855479
23.72000000000021         0.043462095406215144
23.74000000000021         0.042682373502496776
23.760000000000208        0.042341612430421324
23.780000000000207        0.04242026972175061
23.80000000000021         0.04291998150657675
23.820000000000213        0.043863396449828715
23.84000000000023         0.04529607712442579
23.860000000000216        0.047290166954087144
23.880000000000223        0.04995003418268679
23.900000000000222        0.053419609241796194
23.920000000000222        0.05788914096800533
23.940000000000232        0.06359126246140394
23.960000000000235        0.07074807254216332
23.98000000000023         0.07935135320414231
24.000000000000234        0.08863548455109294
24.020000000000227        0.09692010246224936
24.040000000000223        0.1029707633010465
24.060000000000223        0.10621798562257519
24.08000000000023         0.10719343739970139
24.100000000000225        0.10627699155769532
24.120000000000232        0.10308117973592457
24.14000000000024         0.09710888113730129
24.160000000000245        0.08889676883353197
24.180000000000245        0.0796917053736748
24.200000000000255        0.07117505442495213
24.22000000000026         0.06411217569516948
24.240000000000254        0.05851058077705879
24.26000000000026         0.05414765191391188
24.280000000000264        0.0507906063510662
24.300000000000278        0.04824980405798553
24.320000000000267        0.04638119129004619
24.340000000000266        0.04508202511792021
24.36000000000027         0.044281773330738766
24.380000000000273        0.043936948927883364
24.400000000000272        0.04402754380987976
24.42000000000027         0.044555349464179696
24.440000000000264        0.04554406057308094
24.46000000000029         0.0470411728621926
24.48000000000028         0.049121800610460016
24.50000000000028         0.0518945474967175
24.520000000000284        0.05550913580298006
24.540000000000287        0.06016342794576073
24.56000000000029         0.06609932568643703
24.58000000000029         0.07353612470422399
24.60000000000029         0.08248387421456171
24.620000000000292        0.0921600672413378
24.640000000000292        0.100802461089364
24.660000000000288        0.10707316245895995
24.680000000000287        0.1104519635609929
24.700000000000294        0.11146798153812311
24.720000000000294        0.11051660680721533
24.74000000000029         0.10719513640026297
24.760000000000296        0.10098673297287782
24.780000000000307        0.09244956358988568
24.80000000000031         0.082880348201192
24.82000000000031         0.07402756248038429
24.840000000000312        0.06668704121537425
24.860000000000316        0.06086547087733957
24.88000000000032         0.05633460598430028
24.90000000000032         0.05284920461407468
24.92000000000032         0.050212389746273754
24.94000000000033         0.048275468083071794
24.960000000000328        0.046931195496578974
24.98000000000033         0.04610628649115598
25.000000000000327        0.045755620157019686
25.020000000000344        0.04585852467907426
25.040000000000333        0.04641703538835679
25.060000000000336        0.04745601238663361
25.080000000000336        0.0490251268286692
25.100000000000342        0.05120284817475927
25.120000000000342        0.054103011481133424
25.14000000000034         0.05788074366663271
25.16000000000034         0.0627422590422494
25.18000000000035         0.06893855901296332
25.200000000000347        0.07670932219984952
25.220000000000343        0.08605156293830608
25.240000000000343        0.09615321065642053
25.260000000000346        0.10517511497954807
25.280000000000342        0.11172129027826253
25.300000000000338        0.11524914645115691
25.320000000000338        0.11631117504902541
25.340000000000334        0.11532028776744005
25.36000000000034         0.11185644222607312
25.380000000000347        0.10538038413035061
25.40000000000035         0.0964753033701793
25.420000000000368        0.08647553336236849
25.440000000000364        0.07724587547624806
25.46000000000037         0.0695972984279847
25.480000000000373        0.06353157579386463
25.500000000000377        0.05880826089759132
25.520000000000376        0.05517618575531008
25.54000000000038         0.05242996661895138
25.56000000000039         0.05041453596061351
25.580000000000382        0.04901802949463354
25.60000000000038         0.04816400883729536
25.62000000000039         0.04780546517203621
25.640000000000384        0.04792094645093443
25.660000000000387        0.04851273540200748
25.680000000000398        0.04960716620852043
25.700000000000394        0.051256060887287826
25.7200000000004          0.053541724928841176
25.740000000000396        0.056582835866765914
25.7600000000004          0.06054276185022645
25.780000000000403        0.06563696330125315
25.800000000000406        0.07212816574158602
25.82000000000041         0.08026717577815126
25.840000000000412        0.09005066727433972
25.860000000000404        0.10062835737777576
25.880000000000397        0.11007501714132131
25.900000000000404        0.1169295498328093
25.920000000000393        0.12062425430877206
25.940000000000385        0.12173773059912463
25.9600000000004          0.12070275962793903
25.9800000000004          0.11709168922746407
26.00000000000041         0.11032920154843479
26.020000000000408        0.10098424679795275
26.040000000000422        0.09052028084761529
26.06000000000042         0.08086280138902402
26.08000000000043         0.07286063941724445
26.100000000000428        0.0665156123403886
26.120000000000427        0.06157600142549704
26.140000000000434        0.057778875038133254
26.160000000000434        0.054909249764717914
26.180000000000454        0.052804870448806426
26.200000000000443        0.051348763107039605
26.220000000000443        0.05046091156641909
26.240000000000443        0.0500924285147301
26.260000000000446        0.05022077990104715
26.280000000000445        0.05084850390512542
26.30000000000045         0.052003163082045306
26.320000000000448        0.05373952818130971
26.34000000000046         0.0561439488645842
26.360000000000458        0.05934104294923333
26.380000000000457        0.06350231865035386
26.400000000000457        0.06885394051019518
26.420000000000456        0.07567164217624138
26.440000000000456        0.08421855684104847
26.460000000000463        0.094491002271361
26.48000000000046         0.10559638534202583
26.50000000000046         0.11548626227171391
26.520000000000454        0.12269726754223823
26.540000000000457        0.12658996910674575
26.560000000000457        0.12776068174091132
26.580000000000457        0.1266763169606986
26.60000000000045         0.122888370602724
26.62000000000046         0.11579303822552407
26.640000000000462        0.10598745183854878
26.660000000000476        0.0950077227327396
26.680000000000483        0.0848748439521427
26.70000000000048         0.07647968878194582
26.720000000000482        0.06982409436192089
26.740000000000485        0.0646438177775224
26.76000000000049         0.0606623959684518
26.78000000000049         0.05765519345907997
26.8000000000005          0.055451464184929924
26.8200000000005          0.053928398117854964
26.840000000000497        0.05300220921432708
26.860000000000497        0.052621453624001654
26.880000000000507        0.052762767677410886
26.900000000000503        0.05342892133804316
26.920000000000503        0.0546489940721873
26.940000000000506        0.056480677819597785
26.96000000000051         0.05901487385680408
26.980000000000512        0.0623827293935114
27.000000000000522        0.0667647071289563
27.02000000000051         0.07239874333751369
27.040000000000518        0.0795804295875184
27.060000000000517        0.08858377555691403
27.080000000000517        0.09939881749805227
27.100000000000517        0.11106405152349828
27.12000000000051         0.121471327225992
27.140000000000505        0.1290592631011584
27.160000000000508        0.13315617130256788
27.180000000000504        0.13438948491976427
27.20000000000051         0.13325059626176658
27.220000000000514        0.12926782329018394
27.24000000000051         0.12180603174726241
27.260000000000524        0.11149336863147287
27.28000000000053         0.09994585121169017
27.30000000000054         0.08928953323810093
27.32000000000054         0.08046710496813483
27.340000000000543        0.0734652904110162
27.36000000000054         0.06801851760446438
27.380000000000543        0.06383475874503865
27.40000000000055         0.06067585147918994
27.420000000000545        0.058362382946735424
27.44000000000055         0.05676518898471537
27.46000000000056         0.05579617333070521
27.480000000000555        0.05540130428762782
27.500000000000558        0.05555614678977754
27.520000000000557        0.05626377127182982
27.540000000000564        0.05755492188029281
27.560000000000556        0.059490475328539426
27.58000000000057         0.0621658226820871
27.600000000000577        0.06572017642601634
27.62000000000057         0.07034375886653167
27.64000000000057         0.07628820328073274
27.660000000000572        0.08386090941572565
27.680000000000568        0.09335497871386736
27.70000000000057         0.1047585288190944
27.72000000000057         0.11705803221286942
27.740000000000563        0.1280312844624955
27.76000000000056         0.13603227563200254
27.780000000000555        0.14035293578227886
27.80000000000057         0.14165476314954512
27.820000000000558        0.14045595459732726
27.840000000000565        0.13625942583375125
27.86000000000057         0.12836499935853574
27.880000000000575        0.11752632445195124
27.90000000000058         0.10537766718939778
27.920000000000606        0.09414191625149185
27.940000000000598        0.0848306351470657
27.960000000000594        0.07745346235319349
27.980000000000597        0.07171582943978519
28.0000000000006          0.06730984178049176
28.020000000000607        0.06398437509821694
28.040000000000603        0.06155028990568475
28.060000000000606        0.0598714564891631
28.08000000000062         0.058855058973665074
28.10000000000061         0.05844420629186077
28.12000000000062         0.0586132249156473
28.14000000000062         0.059365342189383274
28.16000000000062         0.060733287749071684
28.180000000000618        0.06278138432538838
28.20000000000062         0.06561095422644601
28.22000000000062         0.06936816404406601
28.24000000000063         0.0742542584115435
28.260000000000627        0.08053495377398731
28.28000000000063         0.08853486632405289
28.30000000000063         0.09856351130098628
28.32000000000063         0.11060840339424304
28.340000000000625        0.12359957975530933
28.36000000000062         0.13519067494692733
28.380000000000614        0.1436428832514601
28.40000000000061         0.1482083316360525
28.42000000000062         0.14958529164555914
28.440000000000616        0.14832062895238482
28.46000000000063         0.14387500834614833
28.480000000000626        0.1355554375121374
28.500000000000632        0.12411142214467237
28.520000000000643        0.11128490838976005
28.540000000000646        0.09942304134097014
28.56000000000066         0.08959370822444296
28.58000000000066         0.08180696763958852
28.60000000000066         0.0757517615927199
28.62000000000066         0.07110302773864076
28.640000000000665        0.06759559191287348
28.660000000000668        0.06502966227428299
28.680000000000668        0.06326167738496691
28.700000000000678        0.06219310010978082
28.72000000000067         0.061764256101807496
28.74000000000067         0.06194809938897764
28.760000000000673        0.06274826227962202
28.78000000000068         0.06419926252195363
28.80000000000068         0.06636924002408802
28.820000000000675        0.06936540371355052
28.84000000000068         0.07334237790654735
28.860000000000685        0.07851302533306943
28.88000000000069         0.08515837954045176
28.900000000000684        0.09362175106422446
28.920000000000684        0.104230493898304
28.940000000000683        0.11697160144393952
28.960000000000683        0.13071524350711095
28.980000000000675        0.1430118359912231
29.00000000000067         0.1519376858764816
29.02000000000066         0.15675441111277885
29.040000000000667        0.15821321272107206
29.060000000000674        0.15687677524475616
29.08000000000067         0.1521748715833563
29.100000000000676        0.14337592825735376
29.120000000000687        0.1312731924323882
29.140000000000693        0.11771032173944039
29.160000000000704        0.10516888841408187
29.180000000000714        0.09477745372364538
29.200000000000717        0.08654639587265515
29.220000000000713        0.08014688036320433
29.240000000000713        0.0752350149235546
29.26000000000072         0.0715298704720033
29.28000000000072         0.06882059672055595
29.30000000000072         0.06695525448382934
29.32000000000072         0.06583020798125874
29.340000000000735        0.06538199109996229
29.360000000000728        0.06558206625411712
29.380000000000724        0.06643437582943286
29.40000000000073         0.06797555918388591
29.42000000000074         0.0702778524007892
29.440000000000733        0.0734548592327189
29.46000000000074         0.0776703922106384
29.480000000000743        0.08314993523630779
29.50000000000075         0.09018954566969507
29.520000000000742        0.09915075016408575
29.54000000000074         0.11037879723782594
29.560000000000745        0.12386922857676787
29.580000000000744        0.1384533903676203
29.600000000000733        0.15148315244906096
29.620000000000726        0.1609433387400619
29.640000000000718        0.16605078080991106
29.660000000000725        0.16759926276023293
29.680000000000728        0.1661843183613988
29.700000000000728        0.16120269502599494
29.720000000000734        0.1518816150737242
29.740000000000745        0.13906220160607746
29.760000000000748        0.12469917712598562
29.78000000000076         0.11140237906616145
29.80000000000078         0.10041090244634542
29.82000000000077         0.09170241980282211
29.840000000000767        0.08493013147813024
29.86000000000077         0.07973188096430939
29.880000000000777        0.07581160790828972
29.900000000000777        0.07294597297939769
29.92000000000078         0.0709741231426649
29.94000000000078         0.06978637102954233
29.960000000000793        0.06931548595407085
29.980000000000786        0.0695311841702905
30.00000000000079         0.07043758638636806
30.02000000000078         0.07207343824329393
30.040000000000788        0.07451558720086124
30.06000000000079         0.07788348445696723
30.080000000000794        0.08235048467455268
30.100000000000797        0.08815448246064016
30.1200000000008          0.09560879582391316
30.140000000000796        0.10509493638585549
30.160000000000796        0.11697682478098037
30.180000000000792        0.13125203621722698
30.200000000000784        0.14669932070142078
30.220000000000784        0.16053548569778897
30.240000000000776        0.17060617792272806
30.260000000000776        0.1760671639446509
30.280000000000776        0.17773006374054867
30.300000000000782        0.17621611150362737
30.32000000000079         0.17091480314226318
30.340000000000792        0.16101798400717837
30.3600000000008          0.1473720079597125
30.38000000000081         0.13213448644335365
30.400000000000816        0.1180909407210073
30.42000000000082         0.10646111995026536
30.440000000000833        0.09724453939641997
30.46000000000082         0.09007513662809209
30.480000000000828        0.08457059585244085
30.500000000000835        0.08041808438646672
30.520000000000838        0.07738135298423672
30.540000000000838        0.07529009476511557
30.560000000000834        0.07402809882209521
30.58000000000085         0.07352409545306089
30.600000000000847        0.0737459362334558
30.620000000000836        0.07469771035228215
30.640000000000843        0.0764200237624127
30.660000000000842        0.07899326833199287
30.68000000000085         0.08254394263222857
30.700000000000845        0.08725432308328164
30.72000000000085         0.09337485295314848
30.740000000000858        0.10123511331476176
30.760000000000858        0.11123598592597793
30.780000000000854        0.12375993713145447
30.800000000000853        0.1388091113198353
30.82000000000085         0.1551214214353575
30.840000000000835        0.1697919479002329
30.860000000000838        0.18049161256768131
30.88000000000083         0.1863600584995271
30.90000000000083         0.18814955231702907
30.920000000000837        0.1865172479785125
30.94000000000084         0.18083334676795967
30.960000000000846        0.1702957273077849
30.98000000000086         0.15582387951787188
31.000000000000867        0.13973260898395654
31.02000000000087         0.12492717628934094
31.040000000000877        0.11266668861393082
31.06000000000089         0.10294568737828451
31.080000000000894        0.09537927228289281
31.10000000000088         0.0895654732233634
31.12000000000089         0.08517493479133872
31.14000000000089         0.08195814844043059
31.160000000000895        0.07973631047338035
31.180000000000895        0.07838573202699287
31.20000000000089         0.07783063652002142
31.2200000000009          0.07803637735164723
31.240000000000904        0.07900653432644683
31.260000000000897        0.08078311649257004
31.280000000000904        0.08344988660909067
31.300000000000903        0.08713899630745832
31.320000000000917        0.09204109379031987
31.34000000000091         0.09841824158210573
31.360000000000923        0.10661530214688468
31.38000000000091         0.11705170763599847
31.4000000000009          0.13012840435306142
31.420000000000897        0.14588247958514625
31.440000000000904        0.16293691100135868
31.46000000000089         0.1783193882681231
31.48000000000091         0.18964581620506982
31.500000000000902        0.1958726245352427
31.520000000000902        0.19778122743470275
31.5400000000009          0.19604522319456816
31.5600000000009          0.19001855458993688
31.580000000000894        0.17890283221097739
31.600000000000904        0.16368568855500915
31.620000000000925        0.14682569275161608
31.64000000000094         0.13133826632776918
31.660000000000938        0.11851735283711799
31.680000000000938        0.10835260714440721
31.700000000000944        0.10043444889735058
31.72000000000094         0.09434682341651579
31.74000000000094         0.08974283597238719
31.760000000000932        0.08636018589118488
31.780000000000953        0.08400927796888734
31.800000000000953        0.0825600558860218
31.820000000000952        0.08193185457264207
31.840000000000952        0.08208686862388609
31.86000000000096         0.0830270847253072
31.880000000000955        0.08479448137458537
31.900000000000954        0.08747446851081539
31.920000000000968        0.09120278069926945
31.940000000000968        0.09617600549762732
31.960000000000974        0.10266477947611408
31.98000000000098         0.11102895886845335
32.00000000000096         0.12170544213329597
32.02000000000096         0.13511457201270383
32.04000000000096         0.15126615175981725
32.060000000000954        0.16881596118099956
32.08000000000094         0.18469663523519048
32.10000000000094         0.19641997159087465
32.12000000000095         0.20288940307314365
32.14000000000093         0.204878676968096
32.16000000000093         0.2030715544689517
32.18000000000094         0.1968110874397759
32.20000000000094         0.18530556218553212
32.22000000000096         0.16959593909508053
32.24000000000096         0.15227576259956452
32.26000000000098         0.13636729839604544
32.28000000000097         0.12321626222949882
32.30000000000098         0.11280914281357188
32.32000000000098         0.10472211041880869
32.340000000000984        0.09851499615617008
32.36000000000099         0.09382794870068716
32.38000000000098         0.09038894171029616
32.40000000000098         0.08800132776302129
32.42000000000099         0.08653019814690369
32.440000000000985        0.08589180010708464
32.460000000000996        0.08604669728303853
32.480000000000985        0.08699652918446418
32.500000000001           0.08878388192413496
32.52000000000099         0.09149684813358508
32.540000000001           0.09527499975852594
32.560000000001           0.1003212056975694
32.580000000001014        0.10691578954777779
32.600000000001           0.11542956600751841
32.620000000001           0.12631640337122735
32.640000000000995        0.14001489611986379
32.660000000001           0.1565476267329258
32.68000000000099         0.1745575453316357
32.700000000000976        0.19090985601618962
32.720000000000965        0.2030143995932937
32.740000000000975        0.2097213326611823
32.76000000000096         0.21179221382864732
32.78000000000096         0.20991829321427857
32.80000000000098         0.20341625145090658
32.820000000000974        0.19152872293998524
32.84000000000098         0.17540535633205262
32.86000000000099         0.15763790204017414
32.880000000001           0.14136415466520508
32.900000000001           0.12794014688946273
32.920000000001004        0.1173393790082978
32.94000000000101         0.10911919272603005
32.96000000000101         0.10282271415726364
32.98000000000103         0.09807726140915493
33.00000000000101         0.0946015895218995
33.02000000000101         0.09219267547963414
33.04000000000102         0.09071127868323288
33.060000000001025        0.0900709030894378
33.080000000001036        0.09023041288583987
33.100000000001025        0.09119127001444517
33.12000000000102         0.09299716711048227
33.140000000001024        0.09573791295689804
33.16000000000103         0.09955698142176195
33.180000000001016        0.10466312073086918
33.200000000001026        0.1113453971199578
33.220000000001036        0.11998707077874979
33.240000000001025        0.1310586257536865
33.26000000000103         0.14501798464334176
33.28000000000102         0.16190242046067133
33.30000000000102         0.18034503497368518
33.32000000000101         0.19714814151562735
33.340000000001005        0.20964394824785462
33.360000000001           0.21656479061756673
33.380000000001           0.2187161962493503
33.40000000000099         0.21677658803538574
33.420000000001004        0.21005635871270564
33.44000000000102         0.19781484677645395
33.460000000001024        0.18125713737975657
33.48000000000103         0.1630742653258591
33.50000000000103         0.1464668849492683
33.52000000000103         0.13280061193659679
33.540000000001044        0.12203412839431065
33.56000000000105         0.11370527609411364
33.58000000000106         0.10734014049704538
33.600000000001046        0.1025538067447958
33.62000000000105         0.09905444845026783
33.64000000000105         0.09663381425137382
33.66000000000105         0.09514873854050793
33.680000000001066        0.09451031353306161
33.70000000000106         0.0946764083875022
33.72000000000107         0.09564808356795226
33.74000000000107         0.09746975432103741
33.76000000000106         0.10023312392950817
33.78000000000107         0.10408508806344997
33.800000000001056        0.10923991085940735
33.82000000000106         0.11599509552715763
33.84000000000107         0.12474626834897201
33.86000000000107         0.1359809277469647
33.88000000000106         0.15015717879976936
33.90000000000107         0.16735978441994911
33.92000000000105         0.1862387495729874
33.94000000000104         0.20351962327200007
33.960000000001024        0.21634054410421014
33.98000000000103         0.22349100607123865
34.00000000000102         0.22572245280788794
34.02000000000103         0.22371832020637256
34.04000000000104         0.21678413753209036
34.06000000000104         0.20419785593624853
34.080000000001064        0.18722149359557141
34.10000000000106         0.16864510613675507
34.12000000000108         0.15172935929901754
34.14000000000107         0.13784610416767942
34.160000000001084        0.12693505641546526
34.18000000000107         0.11851878041821126
34.20000000000108         0.11210109272658536
34.2200000000011          0.10728521429666082
34.24000000000109         0.10377257059105291
34.260000000001085        0.10134823571483403
34.280000000001095        0.09986527565052869
34.300000000001084        0.09923255126507369
34.32000000000109         0.0994068145075927
34.340000000001105        0.10038894145244047
34.360000000001094        0.10222406074560417
34.38000000000109         0.10500559487272398
34.40000000000111         0.10888350664498038
34.4200000000011          0.11407785066995697
34.4400000000011          0.12089209311196711
34.4600000000011          0.12973332547693153
34.48000000000109         0.14110362928382353
34.50000000000111         0.15550049889017417
34.52000000000109         0.17300658030806743
34.54000000000109         0.19227800448142676
34.56000000000108         0.20998515992457908
34.580000000001085        0.22316553101204978
34.60000000000108         0.23054683043236768
34.62000000000107         0.23285989380605782
34.640000000001066        0.23079219179162425
34.66000000000108         0.2236458500456924
34.68000000000107         0.21072060175456986
34.70000000000108         0.19333147331928438
34.72000000000111         0.17435782724856952
34.740000000001096        0.15716845373559488
34.76000000000111         0.1431052438087297
34.78000000000112         0.13208091828639468
34.80000000000111         0.12359329077196521
34.82000000000111         0.11713665075989751
34.840000000001126        0.11230214074853083