% Model:              ModelBHUpLine.mph
% Version:            COMSOL 5.6.0.280
% Date:               Oct 21 2021, 16:52
% Dimension:          1
% Nodes:              957
% Expressions:        1
% Description:        线图
% cln2x                   Height
24.16                     0.12763564034582223
24.184635675981053        0.1407565939826074
24.19875318479989         0.1498537800337619
24.246716802618124        0.1923589978793235
24.2476439285717          0.19323410844195557
24.251709071614687        0.19911971737824752
24.291044964438193        0.25053493819747125
24.298404541085223        0.26412934322793474
24.316390386292554        0.29894905545638767
24.324309268131543        0.3138809991356603
24.32866144894041         0.3219547900550797
24.343298859102177        0.3528267553595947
24.359999999999992        0.38174259415785594
24.380000000001004        0.4072517100927438
24.400000000001715        0.42146450910507705
24.420000000002105        0.42844049410326623
24.440000000002296        0.43173597155460675
24.460000000002367        0.4332817495136754
24.48000000000237         0.4339596133245785
24.500000000002366        0.4341386531678229
24.52000000000237         0.43392477391446244
24.540000000002358        0.4332298427411411
24.56000000000236         0.43171117821065624
24.580000000002357        0.42853809960513484
24.600000000002364        0.42189817112920974
24.620000000002385        0.40850064507557854
24.640000000002395        0.38469514776013014
24.660000000002412        0.3509295093206771
24.680000000002433        0.3141505839478008
24.70000000000245         0.28080866764349127
24.720000000002443        0.253526068051434
24.74000000000244         0.2323015720996392
24.760000000002435        0.21632785614729122
24.78000000000244         0.20477035656991388
24.800000000002434        0.19697484926323336
24.820000000002427        0.1924934303774168
24.840000000002423        0.19106886807029683
24.860000000002426        0.1926177659067304
24.88000000000242         0.19722639008029177
24.900000000002425        0.2051549653252089
24.920000000002425        0.21685468955612866
24.940000000002406        0.23298336777054043
24.9600000000024          0.2543790905473555
24.980000000002388        0.28185157746335504
25.000000000002366        0.3153995123709984
25.020000000002337        0.3523852404301256
25.04000000000232         0.3862250966261484
25.0600000000023          0.4102489433843989
25.08000000000229         0.42370511150278517
25.100000000002282        0.43036753038974235
25.12000000000228         0.43354514936465377
25.140000000002278        0.43506160648582004
25.16000000000227         0.4357520864427511
25.180000000002273        0.4359656314176339
25.20000000000227         0.43579686794045047
25.22000000000227         0.43515122058691674
25.240000000002265        0.43368138911370135
25.26000000000227         0.4305500095113439
25.280000000002275        0.4239239693946397
25.30000000000228         0.4104637244533493
25.320000000002295        0.3865378771036433
25.340000000002316        0.3527394374270803
25.360000000002337        0.3157975157498618
25.380000000002337        0.2823004569371251
25.400000000002343        0.25487170922547264
25.42000000000234         0.2335578204048291
25.440000000002335        0.2175114081372191
25.46000000000233         0.20590023978843258
25.480000000002327        0.19807001459576534
25.500000000002323        0.19357177144822513
25.520000000002327        0.19214733466410158
25.540000000002333        0.19371376222276765
25.560000000002322        0.19835750118505321
25.58000000000232         0.20634066300604487
25.60000000000231         0.21811749150894508
25.620000000002307        0.23435020025383213
25.640000000002303        0.25588274094962005
25.660000000002288        0.2835311224248097
25.68000000000227         0.31729644445620103
25.700000000002234        0.35452851306112454
25.720000000002216        0.38860606798003067
25.7400000000022          0.4128158407619155
25.760000000002186        0.42639688184664154
25.780000000002186        0.433142278502283
25.80000000000219         0.4363803286191684
25.82000000000218         0.4379452401313637
25.840000000002178        0.4386790854858041
25.86000000000218         0.4389318199483588
25.88000000000217         0.4387987190281691
25.900000000002173        0.4381846523829261
25.92000000000216         0.43673975966591555
25.94000000000217         0.43361765559412746
25.96000000000217         0.42698615077707036
25.980000000002185        0.4135090022716736
26.000000000002196        0.38948484314282095
26.020000000002227        0.35536776465662323
26.040000000002223        0.3181064983766804
26.060000000002237        0.28439442247108115
26.08000000000224         0.25681939427126416
26.100000000002236        0.23536139773764156
26.12000000000224         0.21921032153449985
26.14000000000223         0.2075264705431094
26.16000000000223         0.1996558958297541
26.180000000002238        0.19514196325432953
26.200000000002227        0.19372691319365845
26.22000000000222         0.19532849726120755
26.240000000002222        0.20003383213447784
26.26000000000222         0.20810759164499376
26.280000000002207        0.22000763505135268
26.3000000000022          0.23640002144016325
26.320000000002192        0.25813155610842875
26.340000000002185        0.2860219259149239
26.36000000000217         0.32009731326002194
26.380000000002145        0.3577591986156821
26.400000000002127        0.3922717945719492
26.4200000000021          0.41663179670851314
26.440000000002097        0.43036981327199353
26.46000000000209         0.4372081006619989
26.48000000000209         0.44050543497697536
26.500000000002075        0.44211392169661345
26.520000000002092        0.44288209736398004
26.54000000000208         0.44316444686797163
26.560000000002074        0.44305670458303675
26.580000000002062        0.4424622968767365
26.600000000002076        0.4410272517500903
26.62000000000207         0.43789991285902635
26.640000000002072        0.43122483264731987
26.660000000002082        0.41763386409013564
26.680000000002103        0.3933886158576553
26.70000000000212         0.35894778536406446
26.720000000002134        0.32132936019548963
26.74000000000214         0.287293698544713
26.76000000000213         0.2594550160545281
26.780000000002136        0.23779382763060167
26.800000000002143        0.22149293978515303
26.820000000002132        0.209705199871266
26.840000000002124        0.20176950837461982
26.860000000002128        0.19722807317646562
26.880000000002124        0.19581885423828674
26.90000000000212         0.1974584922944413
26.92000000000212         0.20223626397675482
26.94000000000211         0.2104203483228559
26.96000000000211         0.22247424790782808
26.9800000000021          0.23907208964276266
27.000000000002096        0.26107096174695915
27.02000000000208         0.2893007451964334
27.04000000000206         0.3238484646984287
27.06000000000204         0.36189927698944185
27.080000000002027        0.396739440459128
27.100000000002005        0.4214565183751538
27.120000000001998        0.4354297259262791
27.140000000001994        0.4423811020954049
27.160000000001997        0.44573915216342114
27.180000000001986        0.44738717485125934
27.20000000000198         0.44818565833876134
27.220000000001985        0.44849147810571477
27.240000000001977        0.44840148923586204
27.260000000001977        0.44781795327051177
27.280000000001973        0.4463825446252396
27.300000000001972        0.443233055957553
27.320000000001965        0.43649105054422804
27.34000000000199         0.42268975560563066
27.360000000002           0.3981105535590331
27.38000000000202         0.36335623136181655
27.400000000002027        0.3253555441141274
27.420000000002034        0.29089579997967113
27.44000000000204         0.26269930599551267
27.46000000000204         0.2407703854533262
27.48000000000203         0.22427691380332676
27.50000000000202         0.21235758507856733
27.520000000002028        0.20433731503408484
27.540000000002017        0.1997542450113015
27.56000000000202         0.19834379100163324
27.580000000002016        0.20002146865219617
27.600000000002012        0.20487867917326172
27.620000000002012        0.21318771177897058
27.640000000002008        0.22541948206034618
27.660000000002015        0.24226005181292498
27.680000000001996        0.2645838323570275
27.70000000000198         0.2932369339987805
27.720000000001967        0.3282236821447751
27.74000000000195         0.3668069553668884
27.76000000000193         0.4021403080060873
27.780000000001912        0.4272171621621685
27.800000000001912        0.4414046933383556
27.820000000001905        0.4484729395516751
27.8400000000019          0.4518964472283205
27.860000000001897        0.45358463744766486
27.880000000001893        0.4544104106702938
27.900000000001892        0.4547359267692072
27.92000000000189         0.4546597556003697
27.94000000000189         0.4540827959612932
27.960000000001898        0.45264195584896866
27.980000000001894        0.44946182915124755
28.00000000000189         0.44262633935865603
28.0200000000019          0.4286460764398995
28.040000000001914        0.40372844178334244
28.06000000000192         0.36849282519131693
28.080000000001924        0.32996530065126356
28.100000000001938        0.29502796181403995
28.12000000000193         0.26644176994427654
28.140000000001923        0.24420883766462143
28.16000000000193         0.22749736468475332
28.180000000001925        0.21542251591821135
28.200000000001914        0.207301915540065
28.220000000001914        0.20266795959115586
28.24000000000192         0.20125277257844
28.260000000001916        0.20297178616363643
28.280000000001927        0.20791777109762474
28.30000000000192         0.2163676123662534
28.320000000001905        0.22879972631039697
28.3400000000019          0.24591083045339304
28.36000000000189         0.2685888078986862
28.380000000001885        0.29769303017102977
28.40000000000186         0.33322883653355023
28.420000000001846        0.37241949538712416
28.440000000001824        0.4083161351601788
28.46000000000181         0.43380303058386754
28.4800000000018          0.44823208883930293
28.500000000001798        0.45542549293468015
28.520000000001787        0.4589187904266793
28.540000000001783        0.4606481481601306
28.560000000001775        0.46150006299438917
28.580000000001768        0.4618430297719372
28.60000000000177         0.461777288508575
28.620000000001767        0.46120240105570537
28.640000000001773        0.45974933799553086
28.66000000000176         0.4565284909434169
28.680000000001762        0.44959964704989624
28.70000000000178         0.43545712769509354
28.720000000001797        0.4102023667480976
28.740000000001825        0.3743179402564217
28.76000000000183         0.3351210156940275
28.780000000001834        0.29965870181149235
28.800000000001827        0.27065726335436746
28.820000000001833        0.2480979395629111
28.84000000000183         0.2311300658484773
28.86000000000183         0.2188730437260983
28.880000000001825        0.21063436453426293
28.90000000000182         0.20593920067213364
28.920000000001828        0.20451527445774967
28.940000000001817        0.2062767319579366
28.960000000001813        0.2113181154318787
28.980000000001812        0.2199211642277317
29.0000000000018          0.2325724945112756
29.020000000001804        0.24998065365406302
29.040000000001797        0.2730314132653843
29.060000000001786        0.30260530788223633
29.080000000001768        0.3387296428230739
29.100000000001753        0.3786603115592227
29.120000000001728        0.4152749928463629
29.140000000001713        0.441157113669335
29.160000000001702        0.4557927158994152
29.180000000001705        0.4631132830028949
29.2000000000017          0.4666755277391983
29.220000000001697        0.46844324804142723
29.240000000001707        0.46931692901174354
29.26000000000169         0.46967287964369125
29.280000000001685        0.46961284027020506
29.30000000000168         0.4690343096591063
29.32000000000168         0.46756131817838503
29.340000000001687        0.46428930000717755
29.360000000001683        0.4572483717226432
29.380000000001694        0.44286575063239464
29.400000000001715        0.4171818055659914
29.420000000001714        0.3806909875101467
29.440000000001728        0.34083452220459454
29.460000000001735        0.3047770387181594
29.480000000001734        0.27529004502627
29.50000000000173         0.2523543179225633
29.520000000001726        0.23510478081520697
29.540000000001733        0.22264608115741857
29.560000000001725        0.21427320568046193
29.580000000001718        0.20950733044030936
29.600000000001714        0.20807007230893731
29.620000000001713        0.20987425886583636
29.64000000000171         0.21501607275373688
29.660000000001705        0.22378205820792646
29.68000000000171         0.2366666304566334
29.700000000001697        0.25438837098128775
29.72000000000169         0.2778606487181156
29.740000000001686        0.30796817564304113
29.76000000000167         0.34474252485186613
29.78000000000165         0.38538366991888745
29.800000000001628        0.42255991475264965
29.820000000001613        0.4489696260367574
29.840000000001606        0.463933391908685
29.860000000001595        0.4714051084156075
29.880000000001598        0.4750378562240656
29.900000000001587        0.47684181051588553
29.920000000001583        0.47773654868171667
29.94000000000158         0.4781037195884659
29.96000000000158         0.47804698650672006
29.98000000000157         0.4774619321139039
30.00000000000157         0.47596552417969024
30.02000000000157         0.4726393339618934
30.040000000001566        0.4654676661540072
30.060000000001594        0.4508224829085135
30.0800000000016          0.42467320195841457
30.100000000001614        0.3875201696680566
30.120000000001625        0.3470277197231442
30.14000000000163         0.31031283331050713
30.16000000000163         0.28027523144366245
30.180000000001638        0.2569206240215703
30.200000000001634        0.23936366363185763
30.220000000001622        0.22668742710922576
30.240000000001622        0.21817308838543886
30.260000000001614        0.21332907095292988
30.28000000000162         0.21187430276272717
30.300000000001614        0.21372060442335275
30.320000000001613        0.21896500567619814
30.340000000001606        0.22790159603454915
30.360000000001595        0.24103421183507245
30.380000000001612        0.2590974167577279
30.4000000000016          0.2830272297118507
30.420000000001586        0.3137296520672469
30.44000000000158         0.351211322531952
30.460000000001557        0.3925498150905185
30.480000000001535        0.4304277039600968
30.50000000000152         0.4573433459368917
30.52000000000151         0.4725995698346233
30.540000000001502        0.4802205841361002
30.5600000000015          0.48392795803495997
30.5800000000015          0.48577064186388047
30.6000000000015          0.48668619045681044
30.620000000001497        0.4870637342894491
30.640000000001493        0.48700894200745154
30.66000000000149         0.48641528681929075
30.680000000001492        0.48489418278263835
30.70000000000149         0.4815034575416339
30.720000000001487        0.4741876271535492
30.740000000001498        0.45920773934499176
30.760000000001504        0.432511704608099
30.780000000001518        0.3947792279327499
30.800000000001525        0.3535348700382133
30.82000000000154         0.31614014926610673
30.84000000000153         0.28554745045395474
30.86000000000153         0.26175891009473157
30.880000000001527        0.24388437132068636
30.90000000000152         0.23097660070625461
30.920000000001522        0.22230809047865327
30.94000000000151         0.21737913656795388
30.960000000001514        0.21590412070147322
30.98000000000151         0.21779291654983177
31.000000000001506        0.22314590170500212
31.020000000001517        0.2322611017921132
31.040000000001513        0.24565280512988635
31.060000000001498        0.2640695373141698
31.080000000001494        0.2884468011939426
31.100000000001483        0.3197142822638656
31.120000000001472        0.3579012262403317
31.140000000001454        0.4001052275599589
31.160000000001432        0.4387229480383163
31.18000000000142         0.466174023557755
31.20000000000142         0.48174616136872356
31.220000000001406        0.48951339264821564
31.24000000000141         0.49329853350092256
31.260000000001405        0.495181167207386
31.280000000001404        0.4961171130558829
31.300000000001397        0.49650355458938156
31.320000000001404        0.4964483774635852
31.34000000000139         0.49584327050030913
31.36000000000138         0.49429042230318937
31.38000000000139         0.4908306405138294
31.400000000001377        0.4833657116948108
31.42000000000139         0.4681468925938588
31.440000000001405        0.44097646013704034
31.46000000000142         0.4024056958518696
31.480000000001425        0.36029689108430285
31.50000000000142         0.3222081791085084
31.520000000001428        0.29106214586156826
31.540000000001427        0.2668384709690497
31.560000000001427        0.2486240114000368
31.58000000000142         0.23547324910330947
31.60000000000142         0.22664326860475548
31.620000000001426        0.2216249975385395
31.640000000001418        0.22012708112685428
31.660000000001403        0.22205825765828277
31.680000000001403        0.22752112989896967
31.700000000001406        0.23681961629073206
31.7200000000014          0.25047799786176206
31.74000000000139         0.26925547840599445
31.760000000001384        0.29411655577278295
31.780000000001383        0.3259974581518301
31.80000000000137         0.36493222739489123
31.820000000001354        0.4079743332012269
31.84000000000134         0.44747065049661794
31.86000000000133         0.4754323898964698
31.880000000001324        0.4912731823497202
31.900000000001317        0.4992105849412781
31.920000000001323        0.5030801480742825
31.940000000001316        0.5050047098371662
31.9600000000013          0.5059609758712168
31.9800000000013          0.5063547951595394
32.000000000001315        0.5062976303866866
32.0200000000013          0.5056793082620366
32.04000000000133         0.5040932124264451
32.06000000000129         0.5005601184535592
32.080000000001306        0.492949486373291
32.10000000000131         0.4774076560674781
32.120000000001305        0.44968664434702965
32.14000000000132         0.4103530708823013
32.160000000001325        0.36742271299647145
32.18000000000134         0.32859375527158596
32.20000000000132         0.29684215538616104
32.22000000000132         0.2721470422891751
32.240000000001324        0.25357855899160014
32.26000000000132         0.2401736289653137
32.280000000001316        0.23117478403578892
32.30000000000131         0.22606243859732592
32.32000000000131         0.2245417368376775
32.340000000001304        0.2265182978442391
32.36000000000131         0.23209676896303036
32.380000000001296        0.2415867805327902
32.40000000000131         0.2555218169871708
32.420000000001295        0.27467667403154794
32.440000000001284        0.30003556147252397
32.46000000000128         0.3325513936562059
32.48000000000127         0.372259774255887
32.50000000000126         0.41615524796255354
32.52000000000123         0.4563531287052422
32.54000000000123         0.4849708708576458
32.560000000001224        0.5012258063958094
32.58000000000122         0.5093574063280054
32.60000000000123         0.5133156162177908
32.62000000000122         0.5152826445056361
32.640000000001216        0.5162591627292132
32.66000000000122         0.5166613157868214
32.680000000001215        0.5166028055945237
32.70000000000121         0.5159705213734448
32.72000000000121         0.5143477532093128
32.740000000001224        0.5107316194040131
32.76000000000121         0.5029422366172402
32.78000000000121         0.4870456974284618
32.80000000000121         0.45872547567963096
32.82000000000122         0.4185895350789518
32.84000000000123         0.3748817446323537
32.86000000000122         0.33527538388301076
32.88000000000122         0.3028731186666616
32.90000000000122         0.27767899526618134
32.92000000000122         0.2587406307631376
32.94000000000121         0.2450715893449071
32.96000000000121         0.23589782091130174
32.980000000001205        0.23068942788011557
33.0000000000012          0.22914303533813657
33.020000000001204        0.23116393948958353
33.0400000000012          0.23685967054249352
33.060000000001196        0.24654386647997673
33.0800000000012          0.26076474631340013
33.100000000001195        0.2803134075003519
33.120000000001184        0.30619892601668325
33.14000000000118         0.33939773347456315
33.16000000000117         0.3799205153284561
33.18000000000115         0.4246341600791333
33.20000000000114         0.4656749197295487
33.220000000001136        0.4949324958530188
33.240000000001125        0.5115742915351924
33.260000000001114        0.5199055120694867
33.280000000001124        0.5239595873159062
33.30000000000112         0.5259724764426751
33.32000000000113         0.5269707757116135
33.34000000000113         0.5273815005037091
33.360000000001115        0.5273211066502547
33.38000000000112         0.5266722481613303
33.400000000001114        0.5250077141735862
33.42000000000111         0.5213010243057281
33.44000000000111         0.5132994558300487
33.4600000000011          0.4969513630278159
33.48000000000111         0.467931875569157
33.50000000000112         0.42707152979049273
33.520000000001126        0.382502399621501
33.54000000000112         0.3421217098357473
33.56000000000112         0.30908665551272024
33.58000000000112         0.2833982048994885
33.60000000000112         0.2640870609217462
33.620000000001106        0.2501473649458542
33.640000000001116        0.24079051544547375
33.66000000000111         0.23547831242155587
33.680000000001115        0.23390240264506504
33.70000000000111         0.2359662610573078
33.720000000001114        0.24177863362908214
33.7400000000011          0.2516614195013602
33.7600000000011          0.26616964934777304
33.7800000000011          0.28611046321278605
33.80000000000109         0.31251110126586407
33.820000000001095        0.34636533516325585
33.840000000001076        0.3876860412020296
33.860000000001065        0.4332954716091657
33.880000000001054        0.47532918030707244
33.90000000000105         0.5052219370261677
33.92000000000104         0.5222369058683259
33.94000000000104         0.5307843064975158
33.96000000000103         0.5349502232366086
33.980000000001034        0.5370181606362412
34.00000000000103         0.5380435359029963
34.020000000001026        0.5384657132008114
34.04000000000103         0.5384041454892712
34.060000000001025        0.5377390131776638
34.08000000000103         0.5360299895729964
34.100000000001025        0.5322165395224558
34.120000000001035        0.5239907959355079
34.140000000001024        0.5072100545338719
34.160000000001034        0.4776219072849652
34.180000000001044        0.43577727045148623
34.20000000000104         0.3902451150714694
34.220000000001036        0.3491027590648911
34.24000000000104         0.31546046662952953
34.26000000000104         0.28928887907644457
34.28000000000103         0.2696050517475213
34.300000000001035        0.25539197406132835
34.32000000000103         0.2458504688312192
34.34000000000103         0.24043345238148825
34.36000000000103         0.23882774534706708
34.38000000000102         0.24093567993680784
34.40000000000103         0.2468680102253583
34.420000000001025        0.2569546473358534
34.44000000000102         0.2717560496745023
34.46000000000102         0.29209638131162724
34.48000000000103         0.3190223596868477
34.50000000000101         0.3534920845448671
34.520000000001           0.3956038195002366
34.54000000000099         0.4422113536145441
34.56000000000097         0.48515097783949157
34.58000000000098         0.5157812806148662
34.60000000000096         0.5332644415038906
34.62000000000096         0.5420606745233697
34.64000000000096         0.5463499554239463
34.66000000000097         0.5484805869865733
34.68000000000096         0.5495391404559171
34.700000000000955        0.5499775737413777
34.72000000000096         0.5499183558010223
34.74000000000096         0.5492376458350225
34.76000000000095         0.5474816564623785
34.78000000000095         0.5435599764893804
34.80000000000095         0.5351145897301571
34.82000000000095         0.5179456140770423
34.840000000000956        0.48757031321592437
34.86000000000096         0.44482387183982486
34.880000000000976        0.3983766482963964
34.900000000000965        0.3564250040672211
34.920000000000975        0.32211976658509706
34.94000000000095         0.2954292974947908
34.96000000000096         0.2753544047108638
34.98000000000096         0.2608599463171455
35.00000000000096         0.25113067347122925
35.02000000000094         0.24560833280913205
35.04000000000095         0.2439736792036407
35.06000000000095         0.24612938096995554
35.08000000000094         0.2521882292937779
35.100000000000946        0.2624841795025056
35.12000000000094         0.27759175326004365
35.14000000000094         0.2983467476534663
35.160000000000935        0.3258067318580688
35.180000000000916        0.3609949747943397
35.20000000000092         0.40395892551268414
35.220000000000915        0.45152963663054524
35.24000000000089         0.49529964603163357
35.260000000000886        0.5267437128424745
35.28000000000089         0.5447707528811906
35.300000000000885        0.5538380239260636
35.3200000000009          0.558257360997847
35.34000000000088         0.5604545859510452
35.36000000000089         0.5615488477251567
35.38000000000089         0.5620047822090083
35.400000000000865        0.5619487507515015
35.420000000000876        0.5612541269258876
35.44000000000088         0.5594545187880476
35.46000000000088         0.5554275408591248
35.480000000000864        0.5467405522000789
35.50000000000088         0.5290528231103236
35.52000000000087         0.49788577290855734
35.54000000000087         0.4543190182715932
35.560000000000876        0.4069886412369437
35.58000000000087         0.3641617462161836
35.60000000000088         0.3291247937273061
35.62000000000088         0.3018701292146326
35.640000000000875        0.28137428938281045
35.66000000000087         0.26657741268853247
35.68000000000089         0.2566472641884639
35.70000000000088         0.2510132893817005
35.720000000000866        0.24934883338568206
35.74000000000087         0.25155195925839163
35.760000000000865        0.2577385074645417
35.78000000000087         0.26825006902823817
35.80000000000086         0.283672073200088
35.82000000000084         0.30486172060966316
35.840000000000856        0.33290033734698715
35.86000000000085         0.3688357762980888
35.88000000000084         0.4126936612451367
35.900000000000844        0.4611784768987061
35.920000000000826        0.5059461145996075
35.94000000000082         0.5382067409350216
35.960000000000804        0.5567641947435293
35.98000000000081         0.5661199154847153
36.00000000000081         0.5706847301981001
36.02000000000081         0.5729557015399965
36.0400000000008          0.5740883241216312
36.060000000000805        0.5745637567146145
36.0800000000008          0.5745135241925194
36.100000000000804        0.5738070244438391
36.120000000000815        0.5719648500828762
36.1400000000008          0.5678254528425567
36.16000000000079         0.5588819519463767
36.1800000000008          0.5407006903927912
36.2000000000008          0.5087478254499643
36.22000000000079         0.4642008705929413
36.240000000000805        0.41587707103804267
36.2600000000008          0.3721717862671528
36.2800000000008          0.3364158127721669
36.300000000000814        0.30859865870144554
36.320000000000796        0.2876778312530461
36.3400000000008          0.2725748797944408
36.360000000000795        0.26243661108221095
36.380000000000784        0.2566849546443699
36.40000000000079         0.2549888549297814
36.42000000000079         0.25724513013330913
36.440000000000786        0.2635715529584415
36.46000000000079         0.2743158286661887
36.4800000000008          0.29007720631047146
36.50000000000078         0.3117257479196655
36.52000000000078         0.3403665667689036
36.540000000000774        0.37706809295614324
36.56000000000076         0.42185988101457916
36.58000000000075         0.47139897893990584
36.600000000000755        0.5172046364384549
36.620000000000736        0.5502994703448473
36.64000000000073         0.5693914215850863
36.660000000000736        0.5790326576881346
36.68000000000073         0.5837453862962224
36.70000000000073         0.5860954261066643
36.72000000000073         0.5872738316036752
36.740000000000734        0.5877767966317604
36.76000000000072         0.5877389866757173
36.78000000000072         0.5870255162058882
36.80000000000072         0.5851397513774449
36.820000000000725        0.5808857952784021
36.840000000000735        0.5716801733583435
36.86000000000072         0.5529813979025178
36.88000000000073         0.5203277176926621
36.90000000000073         0.4746279620054746
36.92000000000073         0.42518384150677946
36.94000000000072         0.38058246708175736
36.96000000000072         0.3441077748132933
36.980000000000715        0.3157176109355008
37.00000000000072         0.2943563344589107
37.020000000000714        0.2789305538786773
37.04000000000072         0.2685786786058789
37.06000000000072         0.2627092552098289
37.08000000000072         0.26098335909021636
37.10000000000072         0.2632959383759411
37.12000000000071         0.26976838834429345
37.14000000000071         0.28075693044031114
37.16000000000071         0.2968731248726869
37.1800000000007          0.3190038459320121
37.2000000000007          0.3482541756326809