% Model:              ModelBHUp.mph
% Version:            COMSOL 5.6.0.280
% Date:               Oct 21 2021, 16:05
% Dimension:          1
% Nodes:              1478
% Expressions:        1
% Description:        线图
% cln2x                   Height
24.16                     0.12747345033998608
24.184718062898924        0.14071090475787768
24.19945826306664         0.15030876417381253
24.247150433868796        0.1927452460100537
24.24788804470251         0.19350293359231646
24.250485495783806        0.19753288386982557
24.288446106047324        0.24646684221116932
24.296635287694237        0.2606721330845508
24.316474354351307        0.2987416174848685
24.322219871174454        0.3097717809561677
24.325700253283095        0.31621363921089757
24.342305372356723        0.35080287600091714
24.36                     0.38165188265933114
24.380000000002244        0.4071516056604528
24.400000000003843        0.42134762484230176
24.420000000004762        0.42831364326838145
24.440000000005167        0.4316041182610512
24.460000000005323        0.4331473626119738
24.480000000005344        0.43382386739222106
24.50000000000533         0.4340022054094328
24.52000000000533         0.433788003868401
24.540000000005342        0.43309313958730866
24.560000000005328        0.43157494747145103
24.58000000000534         0.42840293905735144
24.600000000005355        0.42176517087436854
24.62000000000537         0.40837182164867963
24.64000000000542         0.38447195077365504
24.66000000000547         0.3508176117498597
24.68000000000552         0.31404898441518053
24.700000000005527        0.28071610375032235
24.72000000000554         0.25344070142676184
24.739999996950445        0.23222174854831582
24.75999999678446         0.2162523047194254
24.779999996618766        0.20469817950931493
24.799999996453188        0.19690544276129435
24.819999996287788        0.19242640456368604
24.83999999612279         0.19100397483691742
24.85999999595872         0.1925554611605998
24.879999995796723        0.19716649857759144
24.899999995639217        0.20509707101918354
24.919999995490947        0.2167974257272487
24.939999995360505        0.23292278052823023
24.959999995261615        0.25430577641153573
24.97999999521193         0.2817513067213356
24.999999995224492        0.3152809839849069
25.019999995288497        0.35233014166142684
25.039999995355664        0.3862609651384048
25.059999995367168        0.4101800063330488
25.079999995304405        0.42363485990664784
25.09999999519215         0.4302967738791381
25.120000000005238        0.4334759954349458
25.140000000005234        0.43499097174930296
25.160000000005226        0.43568177152035253
25.180000000005222        0.43589572528069276
25.20000000000522         0.4357274344093316
25.22000000000522         0.4350823192211795
25.24000000000522         0.4336131093777112
25.26000000000523         0.43048254617994086
25.28000000000525         0.4238577740965429
25.30000000000527         0.410399674450334
25.319999993043474        0.3864771247041805
25.339999992541514        0.35268264404385136
25.359999992076826        0.3157443729250935
25.379999991730422        0.2822500392583769
25.399999991496706        0.2548391761527186
25.419999991318257        0.2335133609006099
25.439999991151534        0.21746319004494807
25.45999999098572         0.20585145088684384
25.47999999082021         0.19802159243486542
25.499999990655088        0.19352391407809172
25.519999990490778        0.19210009299964692
25.539999990328297        0.19366720334521445
25.559999990169977        0.19831166506989936
25.579999990020614        0.2062953111981123
25.59999998988964         0.21807142334725263
25.619999989794174        0.23429962524692086
25.63999998976146         0.2558184192788921
25.659999989826325        0.2834389856975031
25.67999999001374         0.3171854440006761
25.699999990299954        0.35448085589341494
25.71999999058561         0.3886495864452579
25.739999990751784        0.41275432232265524
25.759999990763117        0.42633411717560565
25.780000000005128        0.4330791323326847
25.800000000005134        0.43631731047099725
25.82000000000513         0.4378826583347337
25.840000000005123        0.438617140920566
25.860000000005126        0.43887064934819786
25.879999990000403        0.43873841257961543
25.89999998984973         0.43812526468094054
25.919999989677123        0.43668133391007113
25.939999989458727        0.4335630915943332
25.959999989151758        0.4269238860226886
25.9799999886967          0.4133993540042268
25.99999998805928         0.3893304119886793
26.01999998731127         0.3553120806522973
26.039999986631216        0.31812098563069013
26.059999986155677        0.28439470172162684
26.07999998587357         0.25679466040381027
26.099999985686075        0.23532439983701042
26.11999998551861         0.21916944934206672
26.139999985352677        0.2074866867151434
26.15999998518725         0.1996149897326009
26.179999985022405        0.19510187044586272
26.199999984858763        0.1936878091020505
26.21999998469789         0.19528992468933437
26.239999984543235        0.19999596533038605
26.259999984401983        0.20807056213236266
26.27999998428831         0.21997149145936495
26.299999984227835        0.23636468629975207
26.31999998426129         0.2580967792945612
26.339999984440723        0.28598724732803316
26.359999984803004        0.3200620784018084
26.37999998531142         0.3577227223071051
26.39999998581557         0.39223372643288223
26.419999986136418        0.4165923854164312
26.439999986221842        0.4303296287572566
26.45999998615274         0.43716762605857507
26.479999986027817        0.44046498513851995
26.499999985894174        0.44207313705409607
26.519999985759373        0.4428421632438516
26.53999998562187         0.44312527454083867
26.55999998547811         0.4430184357866761
26.579999985320203        0.44242529566674066
26.599999985131472        0.4409922292424682
26.619999984878433        0.437866921775035
26.639999984500985        0.43118374570496343
26.65999998391573         0.4175441753818137
26.679999983075085        0.3932524255371745
26.699999982081017        0.35890959767768504
26.719999981185616        0.321360027154682
26.73999998058094         0.2873080653101345
26.75999998025045         0.2594424393231676
26.779999980053898        0.23776747886796462
26.799999979885673        0.22146154674427818
26.819999979719633        0.20967400285808158
26.839999979554285        0.20173769950744974
26.859999979389713        0.19719587188361437
26.879999979226763        0.19578652858118997
26.89999997906749         0.19742632649620817
26.919999978916497        0.20220452618275006
26.939999978783376        0.2103892568602844
26.959999978687           0.22244393531886994
26.979999978661493        0.23904256298859294
26.99999997876115         0.26104205960201715
27.019999979055118        0.2892721034326338
27.020000000005112        0.28927213643821176
27.039999979592242        0.3237597859895191
27.059999980322868        0.361877568080608
27.079999981045518        0.3968128196603421
27.09999998152103         0.4214806336656386
27.119999981680557        0.4354034970749222
27.13999998163304         0.4423454868162329
27.159999981510808        0.44570440973861275
27.17999998137693         0.44735342702380443
27.19999998124157         0.44815246955537197
27.22000000000491         0.44845882005067006
27.2400000000049          0.44836947943325445
27.260000000004904        0.4477868261055707
27.280000000004897        0.4463524510888628
27.300000000004907        0.44320403148266635
27.320000000004917        0.4364630256010668
27.33999997913476         0.4226626717159915
27.359999978090897        0.39808445988065977
27.379999976850762        0.3633312033967063
27.39999997574            0.3253313090624217
27.419999975006217        0.29087179986310746
27.439999974627327        0.26267501458793535
27.45999997442173         0.2407454777970488
27.479999974252753        0.22425128383436185
27.49999997408659         0.21233130916520487
27.500000000005084        0.21233129636994497
27.519999973921333        0.20431060744536067
27.53999997375703         0.19972741676329211
27.559999973594753        0.1983172141417295
27.56000000000508         0.19831721432462823
27.580000000005068        0.19999554939611533
27.600000000005068        0.20485382124552876
27.619999973164756        0.2131659167739347
27.62000000000505         0.21316429263073858
27.640000000005053        0.22539782337581235
27.660000000005038        0.24224038693337155
27.679999973260998        0.26454958597979233
27.68000000000503         0.26456626923326365
27.700000000005005        0.2932214131641156
27.720000000004966        0.3282099384293586
27.73999997533433         0.3668026182132271
27.74000000000491         0.36679452245619665
27.760000000004883        0.4021286417225837
27.77999997690566         0.4272624905948597
27.799999977139276        0.44139978922107626
27.80000000000483         0.44139346398873336
27.82000000000482         0.4484616641902302
27.839999976993816        0.45188339249029597
27.859999976859697        0.453572528213992
27.87999997672378         0.45439865623951925
27.90000000000481         0.45472439225530875
27.920000000004805        0.4546483651360214
27.940000000004808        0.45407170202766983
27.96000000000481         0.4526311960481376
27.980000000004804        0.44945131046738435
28.000000000004817        0.4426158009414881
28.02000000000484         0.4286351365390212
28.03999997310671         0.403716888629799
28.040000000004877        0.40371684759792714
28.060000000004923        0.36848060050919024
28.08000000000495         0.3299523585668411
28.09999996943148         0.29501405191007535
28.100000000004965        0.29501400364028374
28.120000000004964        0.26642652884819024
28.14000000000497         0.2441922275995238
28.159999968619807        0.22747853974804658
28.160000000004956        0.22747949136218582
28.180000000004966        0.21540363568521598
28.200000000004962        0.20728239757306177
28.219999968124338        0.20264758012601564
28.22000000000495         0.20264825164895278
28.24000000000495         0.20123337288707402
28.26000000000495         0.20295321989367945
28.279999967663002        0.20790180982355577
28.28000000000494         0.20790056960419231
28.300000000004935        0.21635229344716556
28.32000000000493         0.22878677462477123
28.339999967528833        0.2458972342085508
28.340000000004917        0.24590067714359584
28.360000000004906        0.26858180484910116
28.380000000004884        0.2976894035774358
28.400000000004848        0.33322857417551843
28.420000000004784        0.3724221118757414
28.44000000000476         0.40832054037163173
28.46000000000473         0.4338655303226786
28.480000000004708        0.44824370641404604
28.500000000004707        0.45543072275699337
28.520000000004693        0.4589238863752153
28.540000000004692        0.46065296273220474
28.56000000000469         0.46150455602513046
28.579999972064424        0.46184725312506053
28.580000000004684        0.4618472533094052
28.600000000004677        0.46178134048674996
28.620000000004673        0.4612063762076292
28.63999997149451         0.4597532860368563
28.640000000004676        0.4597532830973537
28.66000000000468         0.45653236122764923
28.680000000004696        0.4496032558215959
28.6999999695728          0.4354011897382622
28.70000000000471         0.4354600976157987
28.720000000004752        0.41020413874261796
28.740000000004805        0.3743178958124295
28.75999996484879         0.33518112618333784
28.760000000004844        0.33511868145660484
28.780000000004854        0.2996539320734904
28.800000000004857        0.2706501524277405
28.819999963157393        0.24809221991070302
28.82000000000487         0.2480887044489163
28.840000000004864        0.23111897731391226
28.86000000000486         0.2188604855584452
28.87999996265542         0.21061952740197995
28.88000000000485         0.21062084871146716
28.900000000004848        0.20592530770439746
28.92000000000484         0.20450162107352565
28.940000000004847        0.20626395098311257
28.96000000000483         0.2113068393941673
28.98000000000483         0.2199120093287956
28.999999961883077        0.23256698094280806
29.000000000004828        0.23256604386842225
29.020000000004824        0.24997397261153206
29.040000000004802        0.2730318756394517
29.059999962898324        0.3026097083826853
29.06000000000477         0.30260976962512354
29.080000000004738        0.3387382273051212
29.100000000004695        0.3786728576928007
29.119999966735374        0.41529091023209486
29.12000000000465         0.4152909668731124
29.14000000000462         0.44117559869485173
29.16000000000461         0.45581265813995564
29.17999996807394         0.4631338391781076
29.180000000004597        0.4631338465277704
29.200000000004593        0.4666961755748432
29.22000000000459         0.4684636812785693
29.239999967688156        0.4693368694178053
29.240000000004585        0.46933701436406466
29.260000000004585        0.4696925970272193
29.280000000004584        0.469632238834741
29.299999967202094        0.46905418945570576
29.300000000004577        0.4690534584536017
29.31999996694889         0.4675821545251185
29.340000000004586        0.4643079449112567
29.359999965897895        0.45725969621578605
29.360000000004593        0.45726648304733936
29.380000000004618        0.4428827959242009
29.40000000000466         0.4171969066754104
29.41999996116003         0.3806947501214397
29.4200000000047          0.38070312576520793
29.440000000004726        0.34084303925279286
29.46000000000475         0.3047818034002131
29.479999957757965        0.2753088442121562
29.480000000004754        0.275291288063979
29.49999995752522         0.2523560493276447
29.51999995735397         0.23509940471093352
29.539999957187476        0.222638000514172
29.540000000004735        0.2226379784296194
29.56000000000474         0.21426560002522096
29.580000000004738        0.20949915717551465
29.59999995669872         0.20806205437504272
29.600000000004734        0.2080620547824388
29.62000000000473         0.2098671303070909
29.640000000004722        0.21501056763610368
29.65999995630893         0.22377887979028002
29.660000000004718        0.22377890306000478
29.679999956281765        0.23666650116976762
29.699999956396187        0.254391966835998
29.719999956760557        0.27786859252323926
29.720000000004703        0.27786864983399073
29.740000000004674        0.3079810642129298
29.760000000004624        0.3447606232283686
29.779999960368716        0.38541510594934425
29.780000000004588        0.385406874164642
29.800000000004538        0.4225874195922283
29.820000000004505        0.44900006490063393
29.839999963515446        0.4639720256567669
29.840000000004498        0.4639653810415842
29.86000000000449         0.47143765735968307
29.880000000004475        0.47507038621934017
29.89999996330797         0.4768734344891563
29.90000000000448         0.47687403114358057
29.919999963170355        0.47776821709746603
29.939999963026125        0.47813520779443985
29.959999962866597        0.4780784200903522
29.960000000004467        0.47807817080646126
29.98000000000447         0.47749297701357085
30.000000000004462        0.4759965061392379
30.020000000004455        0.4726671539130568
30.04000000000448         0.4654983841024079
30.059999960010874        0.45079154198477156
30.079999958154147        0.4245887299454186
30.08000000000455         0.42470141994266
30.100000000004577        0.3875530425600209
30.12000000000462         0.3470469206901364
30.1399999527073          0.31032674515978537
30.140000000004644        0.3103266666813532
30.160000000004647        0.28028418089149276
30.18000000000464         0.2569254067745211
30.19999995172104         0.239365092621456
30.200000000004632        0.23936505645380982
30.219999951554442        0.22668624780233823
30.2399999513895          0.21817010040315526
30.259999951226284        0.21332507597759626
30.260000000004624        0.21332506839686238
30.280000000004623        0.21187010055116126
30.30000000000462         0.21371698783415813
30.31999995078281         0.21896403401770256
30.320000000004622        0.21896273754126197
30.340000000004622        0.22790140162276207
30.36000000000461         0.24103676371311303
30.37999995082985         0.2590996712193664
30.38000000000459         0.25910330664853676
30.40000000000457         0.2830369255025488
30.420000000004556        0.31374345554863564
30.439999953538486        0.3511646459540998
30.440000000004503        0.35122940797832536
30.460000000004467        0.392572528909013
30.48000000000443         0.43045577399307955
30.49999995844415         0.457437345707859
30.500000000004402        0.45737691028732375
30.520000000004394        0.47263710648437446
30.540000000004383        0.4802601539030011
30.559999958925772        0.48396649935745084
30.560000000004383        0.4839682571836441
30.580000000004375        0.4858109872699315
30.60000000000436         0.48672627075911623
30.619999958506998        0.4871034993816237
30.62000000000438         0.48710345381291587
30.640000000004367        0.48704856283817827
30.660000000004363        0.4864550460082449
30.67999995785759         0.484932631438562
30.680000000004366        0.48493262687260924
30.69999995739666         0.4815408807828563
30.71999995659635         0.47422303344460437
30.739999955229912        0.45923957837402785
30.74000000000439         0.4592395335028932
30.760000000004435        0.4325384468230021
30.78000000000448         0.394800373129817
30.799999948512003        0.3535507802819414
30.80000000000452         0.3535506783184551
30.82000000000453         0.3161508391350936
30.840000000004533        0.28555322589276527
30.85999994626088         0.2617637226519957
30.860000000004533        0.2617600023775193
30.88000000000452         0.24388170014513003
30.900000000004525        0.23097230256038687
30.919999945756533        0.22230110994777744
30.920000000004517        0.22230249787604014
30.940000000004517        0.21737262213728836
30.960000000004513        0.21589668955380065
30.97999994528506         0.21778574542928308
30.980000000004516        0.2177851012633445
31.00000000000451         0.2231384038475798
31.020000000004494        0.2322545881305792
31.039999945079156        0.2456488285050806
31.040000000004493        0.2456478511905804
31.060000000004482        0.26406657814066825
31.08000000000446         0.28846419270890444
31.099999946741544        0.3197158397340567
31.100000000004442        0.3197633830381809
31.12000000000441         0.35797107271501516
31.14000000000437         0.4001117762167069
31.159999952425228        0.43884738439445614
31.160000000004324        0.4388474700863013
31.17999995382877         0.46625118307470076
31.200000000004287        0.48176054024009923
31.219999954514844        0.4895391993272282
31.22000000000428         0.489539210455682
31.24000000000428         0.49332726999936016
31.260000000004272        0.4952113673130221
31.279999954134766        0.49614790677775417
31.280000000004264        0.49614790813779436
31.30000000000426         0.4965345232229737
31.320000000004253        0.49647936555577693
31.339999953613535        0.49587429426175567
31.340000000004274        0.49587429206022876
31.360000000004266        0.49432158158129536
31.379999952816366        0.49086208380967256
31.39999995194558         0.4833977182539929
31.400000000004272        0.48339769336984745
31.419999950448954        0.4681161670923967
31.43999994818577         0.44089196767419075
31.459999945469303        0.4024259025406508
31.46000000000436         0.4024343111726975
31.480000000004395        0.36031970173460004
31.500000000004412        0.32222467475231376
31.519999940888624        0.29109158047194916
31.52000000000442         0.2910730374899571
31.54000000000441         0.266844731717686
31.560000000004397        0.24862670670799633
31.579999940288374        0.2354716978700845
31.580000000004404        0.23547353049534184
31.600000000004396        0.22664204057823137
31.620000000004403        0.22162310047215542
31.639999939802717        0.22012530957380133
31.640000000004388        0.2201253486779595
31.660000000004388        0.22205759338739212
31.679999939529324        0.22752380428836005
31.680000000004384        0.2275224608009058
31.69999993945311         0.23682566455427267
31.700000000004383        0.23682388531636284
31.719999939477876        0.2504871629428335
31.7399999396972          0.2692684858978213
31.74000000000436         0.2692722693207629
31.759999940260116        0.29413547011181784
31.760000000004368        0.29413555396850927
31.779999941355946        0.3260232993953548
31.79999994311702         0.36496584626888784
31.81999994540311         0.40801589161559343
31.820000000004253        0.40801601364643736
31.839999947655176        0.4475186057769378
31.85999994921341         0.4754835070270481
31.879999949891637        0.49132519515814177
31.880000000004184        0.4913252218288581
31.900000000004162        0.49926275265781794
31.920000000004165        0.5031325943061979
31.939999949756263        0.5050574233293683
31.940000000004147        0.5050574264791637
31.96000000000415         0.5060138755991941
31.980000000004143        0.5064078628539692
31.999999949299745        0.5063510883977839
32.000000000004164        0.5063508209876161
32.02000000000416         0.5057325009373811
32.040000000004156        0.5041461712433496
32.05999994823607         0.5006157142808625
32.06000000000416         0.5006124298689713
32.08000000000417         0.4930003754741684
32.10000000000419         0.4774558024719405
32.1199999432016          0.4496117681058583
32.12000000000422         0.44973032000894886
32.139999940239086        0.41038251456494557
32.159999937620796        0.3675224218741652
32.16000000000429         0.3674538925203248
32.17999993598315         0.3286678957701838
32.18000000000431         0.3286677833682235
32.200000000004295        0.29686107510791376
32.21999993499654         0.2721647812970854
32.220000000004305        0.2721609170357765
32.23999993482228         0.2535873061110326
32.24000000000428         0.253588343709484
32.26000000000428         0.2401802821531736
32.27999993449062         0.23117788844033577
32.280000000004286        0.23117786558007009
32.29999993432824         0.22606573827449752
32.30000000000428         0.2260657275285315
32.31999993417071         0.22454471221771238
32.339999934024256        0.22652186449071904
32.34000000000428         0.2265218768042063
32.3599999339026          0.2321018474123335
32.36000000000426         0.23210187195552015
32.37999993383452         0.24159428189388513
32.399999933876565        0.2555326425619096
32.400000000004276        0.2555326963376559
32.41999993413088         0.2746917226036582
32.42000000000426         0.2746917947372704
32.44000000000425         0.3000558417312951
32.45999993597035         0.33257767833433616
32.46000000000422         0.3325777945172309
32.479999937906285        0.3722931017755763
32.48000000000419         0.37229323650026785
32.50000000000415         0.4161963014823002
32.52000000000411         0.456401628080819
32.53999994459803         0.48508962663542865
32.54000000000408         0.4850255813486288
32.56000000000407         0.5012841818896284
32.57999994547546         0.5094146933153543
32.599999945374776        0.5133747166510215
32.600000000004066        0.5133765908998886
32.61999994523904         0.515342938776743
32.6399999450992          0.5163197368942061
32.65999994494957         0.516721908627558
32.66000000000406         0.5167218595324488
32.67999994477744         0.5166635360189414
32.700000000004046        0.5160310384783033
32.71999994422068         0.514410658136697
32.720000000004056        0.514408538731713
32.74000000000406         0.5107963819762963
32.760000000004055        0.5029972994499312
32.77999994088705         0.48704418310881487
32.780000000004094        0.4870441200624488
32.799999938217404        0.45866913868880455
32.81999993500883         0.41863950377752746
32.82000000000413         0.41863936429793647
32.83999993217522         0.37492975625119723
32.84000000000419         0.37492961395766733
32.86000000000418         0.3353126894142495
32.879999929642395        0.30290122940123215
32.88000000000418         0.3029011289953134
32.899999929364355        0.277699431626264
32.90000000000418         0.27769935438282495
32.92000000000417         0.25875485062185805
32.9399999290223          0.2450810227988022
32.94000000000416         0.24508098264186584
32.95999992885768         0.23590352639144727
32.96000000000417         0.23590350108034336
32.98000000000417         0.23069246113840108
32.99999992853873         0.2291448075452807
33.000000000004164        0.2291448084061438
33.01999992839385         0.23116573241453606
33.02000000000416         0.23116574606197296
33.03999992827589         0.23686188530637406
33.05999992821592         0.24654881969269268
33.06000000000416         0.2465469790723521
33.07999992827525         0.26077017740137387
33.080000000004155        0.2607691567010375
33.099999928564564        0.2803153618739131
33.11999992925981         0.30618689859227505
33.12000000000412         0.30620608100193913
33.139999930584764        0.3393553653265073
33.140000000004115        0.3394055653145878
33.159999932695534        0.3798585536114858
33.17999993542604         0.4246509939854622
33.18000000000405         0.4246438508097865
33.199999938115106        0.4658114949609491
33.200000000003996        0.46569244705616647
33.22000000000397         0.4949635429142557
33.24000000000397         0.5116181843271596
33.25999994095578         0.519954095623819
33.26000000000398         0.5199572714871948
33.28000000000395         0.5240152186678382
33.300000000003955        0.5260299092985589
33.31999994058138         0.527028945086198
33.320000000003944        0.5270291084062281
33.34000000000396         0.5274403236427583
33.36000000000395         0.5273803419049031
33.37999994002497         0.5267329227996663
33.380000000003946        0.5267329197547576
33.40000000000395         0.5250708761981564
33.419999939075495        0.5213645440716671
33.42000000000395         0.5213645282628555
33.4399999379933          0.5133680968414526
33.44000000000397         0.5133680624524702
33.45999993610608         0.49702775625622125
33.47999993323324         0.4680134853163415
33.48000000000401         0.4680133669054174
33.499999929778596        0.42714834076339003
33.50000000000403         0.42714818698749835
33.519999926729604        0.38256619377842477
33.539999924833694        0.3421709245084897
33.54000000000408         0.3421707872986823
33.559999924019294        0.30912335271624547
33.560000000004074        0.3091232421541586
33.58000000000407         0.2834249609504028
33.59999992355644         0.26410524622934956
33.600000000004066        0.2641063060477339
33.61999992338927         0.2501590874782983
33.62000000000406         0.25016102007804697
33.64000000000405         0.24080020677399702
33.6599999230629          0.23548470218365744
33.66000000000406         0.23548547251346735
33.67999992290673         0.23390829227469886
33.68000000000408         0.23390833172142944
33.699999922763475        0.23597285551422606
33.71999992264915         0.24178705102409548
33.72000000000404         0.24178563500034128
33.73999992259733         0.251672442016898
33.74000000000406         0.2516705707119626
33.75999992267396         0.2661829450835288
33.779999922998236        0.28612267093186955
33.78000000000404         0.286126674312697
33.799999923759714        0.31251247303093704
33.80000000000402         0.31251258658099673
33.819999925199184        0.346340508471308
33.83999992748481         0.3876472439064709
33.840000000003975        0.3876474075354353
33.8599999304375          0.43334292371976135
33.860000000003936        0.4333366255493344
33.87999993334508         0.4753786957107342
33.8999999353673          0.5052782343487385
33.90000000000388         0.5052116188114113
33.91999993626783         0.522296352710435
33.920000000003874        0.5222884885830433
33.93999993643608         0.5308448445665741
33.95999993634078         0.5350111890666147
33.96000000000385         0.5350111974807101
33.97999993620456         0.5370793665631188
33.98000000000384         0.5370793708525262
33.99999993606358         0.5381048872526336
34.0199999359113          0.5385272268904978
34.02000000000385         0.5385272274447146
34.03999993573285         0.5384660005662655
34.04000000000384         0.5384659995674023
34.06000000000384         0.5378016487011461
34.079999935129386        0.5360944154031106
34.08000000000383         0.5360944075160924
34.09999993449521         0.5322849952241019
34.10000000000385         0.5322849777514846
34.12000000000384         0.5240675324421592
34.139999931325114        0.5072997946242744
34.14000000000386         0.5072997177317201
34.15999992824905         0.4775996918515671
34.16000000000389         0.4777220513727292
34.18000000000393         0.43587318631191146
34.19999992128402         0.3903974259643676
34.20000000000395         0.3903246684899661
34.219999919258974        0.34921576698478685
34.22000000000397         0.34916378581593793
34.240000000003974        0.31550583249908726
34.25999991810004         0.2893262664729084
34.26000000000395         0.2893221616703581
34.27999991792353         0.2696281942574789
34.28000000000396         0.2696292521742397
34.30000000000396         0.25540938618850945
34.31999991759177         0.2458616520919485
34.320000000003944        0.2458631654012032
34.339999917430234        0.2404424006335156
34.34000000000396         0.24044318544548127
34.36000000000395         0.23883626900051183
34.37999991713306         0.24094505314067519
34.38000000000393         0.24094434886055324