% Model:              ModelBHUp.mph
% Version:            COMSOL 5.6.0.280
% Date:               Oct 21 2021, 16:05
% Dimension:          1
% Nodes:              1403
% Expressions:        1
% Description:        线图
% cln1x                   Height
47.800000000001894        0.27555867303205905
47.81999980576504         0.2953870775255689
47.82000000000189         0.2953809617286037
47.83999980572656         0.31856590065006607
47.84000000000189         0.3185604176922852
47.859999805842975        0.3458879096489105
47.86000000000188         0.34588574711890663
47.87999980627811         0.37835499772420594
47.880000000001885        0.3783624129388639
47.88000019372564         0.37836275789344337
47.90000000000189         0.41722474113718294
47.91999980946582         0.463782861021034
47.92000000000188         0.4638608109027498
47.93999981329116         0.5192659135777908
47.94000000000188         0.5194189867516201
47.95999981922304         0.5833540486332183
47.960000000001855        0.5835458430700484
47.97999982681223         0.6517119955648883
47.98000000000184         0.6517433921398842
47.99999983427845         0.7139218571000949
48.00000000000182         0.713688434277104
48.019999839525696        0.75877675079461
48.020000000001815        0.7585866307206924
48.03999984196941         0.7843491397655402
48.040000000001804        0.784304296398897
48.05999984258635         0.7963840649130989
48.06000000000181         0.7963908359121507
48.07999984254697         0.8012193680957309
48.0800000000018          0.8012289259367089
48.099999842405964        0.8026903115857198
48.1000000000018          0.8026954758708669
48.11999984225329         0.8025236639411529
48.120000000001795        0.8025260159652532
48.139999842073095        0.8013981351726895
48.1400000000018          0.8013992064846425
48.15999984182922         0.7994978604795572
48.16000000000183         0.7994982592605545
48.17999984144173         0.7966256979000195
48.18000000000181         0.7966256703183079
48.19999984074091         0.792040066430603
48.2000000000018          0.7920400204665395
48.219999839387214        0.7839530953249303
48.22000000000181         0.7839530101696774
48.23999983677117         0.7686290730042578
48.24000000000181         0.7686289062525307
48.25999983205031         0.7400090180459494
48.26000000000181         0.7400087070060423
48.279999824754476        0.6930204877664345
48.28000000000183         0.6930199985806477
48.29999981594459         0.6308307228025448
48.300000000001845        0.6308301201785074
48.319999808208394        0.5652518670797247
48.32000000000184         0.5652512670228221
48.339999803502145        0.5065612789394343
48.340000000001844        0.5065607577347031
48.35999980163454         0.4586216059920388
48.360000000001854        0.45859774509375867
48.37999980115042         0.42126192178014
48.38000000000184         0.42125700693794677
48.39999980095829         0.39307590947915366
48.40000000000185         0.3930770314161364
48.419999800788666        0.37262758215614866
48.420000000001835        0.3726295977812339
48.4399998006258          0.3587847937382894
48.44000000000183         0.35878612051345743
48.45999980046995         0.3507655013042384
48.46000000000184         0.3507658338920567
48.47999980032858         0.34811431244539337
48.48000000000185         0.3481136497071955
48.499999800220166        0.35067401061570336
48.500000000001855        0.35067238583809995
48.51999980018566         0.3585763726852709
48.520000000001836        0.3585738448084236
48.53999980031074         0.3722453373779563
48.540000000001825        0.37224246166833724
48.55999980076391         0.39242251023798663
48.560000000001835        0.3924213484097755
48.579999801849524        0.420180695061283
48.58000000000183         0.4201873865912217
48.599999804051336        0.4568699014089507
48.60000000000182         0.456898997603223
48.60000019595227         0.4568994038029219
48.6200000000018          0.5038524527652771
48.639999814075125        0.5609637122272119
48.6400000000018          0.5610720246127582
48.659999821864055        0.6245243986058636
48.660000000001766        0.6245472319655139
48.679999829527006        0.684134743079952
48.68000000000176         0.6841352226645454
48.69999983491557         0.7279894031645298
48.700000000001744        0.7279896929657468
48.71999983742883         0.7534149666197395
48.72000000000175         0.7534151054592576
48.7399998380667          0.7657477769033124
48.74000000000173         0.7657478355578833
48.759999838030026        0.7710055211592953
48.76000000000173         0.7710055433770844
48.77999983788879         0.7728547523220507
48.78000000000174         0.7728547577240111
48.799999837735534        0.7730462617386882
48.800000000001724        0.7730462584415007
48.81999983755399         0.7723084907447187
48.82000000000172         0.7723084816555811
48.839999837306955        0.7708385986896421
48.840000000001716        0.7708385836553325
48.85999983691226         0.7684384575087729
48.86000000000172         0.7684384331549703
48.87999983619531         0.7643857562229623
48.88000000000171         0.7643857136174793
48.89999983480696         0.7569594869760743
48.90000000000172         0.7569594055426613
48.91999983212044         0.7425558382760348
48.92000000000172         0.7425717495724586
48.9399998272694          0.7152759932109344
48.94000000000172         0.7153669249759338
48.95999981977037         0.670054576166956
48.96000000000175         0.6701785621827847
48.97999981071441         0.6097803247590264
48.980000000001766        0.6097602158143615
48.999999802762886        0.5459165993191007
49.00000000000179         0.5458200939555723
49.01999979792752         0.48855958376598363
49.02000000000178         0.4884953964187171
49.03999979601152         0.44155331979091245
49.04000000000179         0.4415289069120847
49.05999979551835         0.40477662304018996
49.06000000000181         0.4047714718785047
49.07999979532546         0.37688352746132564
49.080000000001796        0.37688465927436193
49.09999979515571         0.35648674325929136
49.10000000000178         0.35648890203543493
49.11999979499295         0.34248792668258543
49.12000000000179         0.3424894857647032
49.13999979483738         0.33412516104331147
49.140000000001784        0.3341257795595841
49.15999979469665         0.3309504447056669
49.16000000000178         0.3309501115692513
49.179999794589854        0.33280490534969237
49.18000000000178         0.33280362864709623
49.19999979455902         0.33980663439411085
49.20000000000177         0.33980446336375497
49.21999979469222         0.35235753970820655
49.22000000000175         0.3523549322050421
49.239999795162646        0.3711653946503958
49.24000000000171         0.3711641627707109
49.25999979628312         0.39726018815034364
49.26000000000162         0.39726049273716996
49.27999979855086         0.43194261701619835
49.280000000001344        0.43194301171232163
49.29999980259743         0.4764583327388897
49.300000000000715        0.4764588230282785
49.30000019740396         0.47652678959898115
49.319999999999176        0.5308668624544919
49.33999981686928         0.5913963682741599
49.3399999999954          0.5913969460199019
49.35999982474157         0.6480742024403705
49.35999999998625         0.648074670254648
49.379999830262804        0.6896165229760579
49.37999999996422         0.689616804386397
49.39999983279773         0.7136712712800012
49.39999999991179         0.7136714065180588
49.41999983333427         0.7254302658856115
49.41999999978885         0.7254303242242666
49.43999983301645         0.7305784341902009
49.43999999950504         0.730578457566846
49.459999832230814        0.732539448860787
49.45999999886086         0.7325411903974902
49.47999983064301         0.7329400595314295
49.47999999742686         0.732940765275382
49.49999982733634         0.7324590912175992
49.49999999430306         0.7324593551570682
49.51999982044666         0.7312808797538828
49.519999987663546        0.7312807971299442
49.53999980632316         0.7292222574146396
49.53999997394196         0.7292214256575056
49.55999977814122         0.7256111974942666
49.559999946493           0.7256085940087489
49.579999723910504        0.7188435470055271
49.579999893685155        0.7188399740874305
49.59999962451223         0.7055395442119236
49.59999979704367         0.7055540023483413
49.61999945502166         0.6800908918758283
49.619999632534025        0.6801779787317965
49.639999197420124        0.6375197292933102
49.639999382634365        0.6376438030142044
49.65999886746566         0.5803552739618179
49.659999061981594        0.5803395707064586
49.679998530556205        0.5195402688793019
49.67999873323895         0.5194474368464445
49.69999827640614         0.4648471268804951
49.69999848405371         0.4647847427060287
49.71999816902311         0.42002506642468107
49.71999837863576         0.42000128405011383
49.73999820642879         0.38497614435330363
49.739998416544374        0.38497110940314533
49.759998318243845        0.3584142543299497
49.7599985285535          0.3584153506248764
49.779998430305604        0.3390128050140389
49.779998640785166        0.33901492965435465
49.79999853354643         0.32572295255700806
49.7999987441886          0.32572451259179697
49.81999863717039         0.31781788675916917
49.81999884796786         0.31781783029480015
49.83999874097611         0.3148718379013954
49.83999895191362         0.3148718323265443
49.859998844843616        0.316735710085941
49.85999905588632         0.3167357551536552
49.87999894872134         0.32352682458374205
49.87999915979123         0.3235269227993121
49.899999052577826        0.33563493027604485
49.89999926350637         0.3356350869749086
49.91999915637093         0.3537439283732127
49.91999936681169         0.35374415180672575
49.93999925999738         0.3788490312441274
49.93999946928257         0.378849332236808
49.959999363155376        0.4122083702360844
49.95999957010637         0.4122087602329744
49.979999464975904        0.4550288823410878
49.97999966776512         0.45502936684788325
49.99999956318321         0.5073676982216512
49.999999759531526        0.5073682598413248
49.99999995587974         0.5074637087071523
50.01999984098394         0.5655711771716613
50.039999726632495        0.619914952260161
50.03999990664735         0.6197835298842508
50.059999778574905        0.6595951990212426
50.059999952891786        0.6595034607323166
50.07999980898328         0.682519600945357
50.079999980638604        0.6825042229823639
50.09999982329452         0.6937708674385201
50.09999999426874         0.6937751533292668
50.119999828114345        0.698777838463543
50.11999999911984         0.6987813640096372
50.13999982885445         0.7007748554203632
50.14000000000163         0.7007763985960086
50.15999982870011         0.7012926728729456
50.16000000000162         0.7012932768366898
50.17999982851587         0.7009702679064265
50.18000000000161         0.7009704718414047
50.19999982826255         0.6999819284698635
50.20000000000163         0.6999818068102969
50.21999982785337         0.6981562812023948
50.22000000000162         0.6981554416581136
50.23999982710419         0.6948615267416394
50.24000000000162         0.694858984339048
50.25999982564654         0.6885856751556211
50.260000000001625        0.6885820895363983
50.27999982281907         0.6761265242603781
50.280000000001635        0.6761398103474741
50.29999981770768         0.652106963692581
50.30000000000165         0.6521908360342084
50.319999809802184        0.6116231051162239
50.32000000000164         0.611622643141979
50.33999980025411         0.5569251419889892
50.34000000000166         0.5569245631992851
50.35999979187185         0.49853984028012527
50.360000000001655        0.49853925900648494
50.37999978677825         0.44597469797130285
50.38000000000167         0.44597419083733414
50.39999978476549         0.40289859248520654
50.400000000001675        0.40289818312468373
50.41999978425417         0.3692304190422364
50.42000000000166         0.3692301027676291
50.43999978405981         0.3437309911676446
50.44000000000167         0.3437307551973865
50.45999978388982         0.325120940921489
50.46000000000165         0.3251207732332367
50.47999978372722         0.31238980750915074
50.48000000000166         0.31238969903514274
50.49999978357219         0.3048388817720664
50.50000000000165         0.3048388265822116
50.51999978343285         0.3020597477841191
50.52000000000166         0.30205974288181003
50.539999783329236        0.30391057016817846
50.540000000001655        0.30391061532642943
50.55999978330574         0.3105064166973626
50.56000000000166         0.3105045101516427
50.57999978345521         0.32222665324528066
50.580000000001654        0.32222428848133083
50.59999978396027         0.3397349421258218
50.600000000001636        0.3397337924707491
50.61999978515081         0.3639969271755728
50.62000000000166         0.36400217511651345
50.63999978755116         0.39623391336540725
50.640000000001635        0.39625820079617685
50.65999979182747         0.4376199037160318
50.66000000000163         0.43768275886771857
50.67999979844314         0.48820955599905363
50.68000000000162         0.48830124706211153
50.69999980689869         0.5444220081813049
50.700000000001594        0.5444325605737623
50.700000193104444        0.5444330965527588
50.72000000000159         0.5966907121297836
50.73999982106969         0.6349268288598048
50.74000000000157         0.634839406374225
50.75999982380522         0.6568871144897999
50.76000000000156         0.6568731664142979
50.77999982450785         0.6676909862192179
50.780000000001564        0.66769514419709
50.79999982447923         0.6725549680737903
50.800000000001546        0.6725582382791145
50.81999982433727         0.6745584446687011
50.82000000000155         0.6745598419969205
50.83999982418236         0.6751535954403612
50.840000000001545        0.6751541246929565
50.85999982399679         0.674946721794113
50.86000000000154         0.6749468827013564
50.87999982374028         0.6741030776176701
50.88000000000154         0.6741029285682124
50.89999982332389         0.672460445653131
50.90000000000153         0.6724604267151713
50.91999982255861         0.6694193229567164
50.92000000000155         0.6694192873629847
50.93999982106628         0.6635422961835424
50.94000000000153         0.6635422252744446
50.95999981816836         0.6517725429143372
50.96000000000154         0.6517723977103226
50.979999812926756        0.6289261339501253
50.98000000000155         0.6289258534390645
50.99999980481806         0.590166179489137
51.00000000000157         0.5901657244636754
51.019999795023956        0.5375132588589832
51.0200000000016          0.537512686220162
51.03999978642634         0.48114673654735235
51.04000000000159         0.48114616041057806
51.05999978120362         0.43035175388301133
51.060000000001594        0.43035125106145955
51.07999977914246         0.3887292979994305
51.080000000001604        0.3887288922229676
51.09999977862211         0.35621200800114
51.10000000000161         0.35620718232187615
51.11999977842698         0.3316001929478472
51.120000000001596        0.33160125060130813
51.13999977825688         0.31365425920149387
51.1400000000016          0.31365631324161114
51.15999977809435         0.3013951199810533
51.160000000001595        0.30139665422016154
51.17999977793961         0.29414640716658497
51.1800000000016          0.29414710678012385
51.19999977780095         0.2915137417553486
51.2000000000016          0.29151359042997055
51.21999977769893         0.293361216424548
51.22000000000159         0.2933602211253275
51.23999977767909         0.2998017607674101
51.240000000001594        0.29979995206486815
51.2599997778367          0.3112046710507039
51.2600000000016          0.31120240478005873
51.27999977835906         0.32821672752884956
51.28000000000158         0.3282156073485866
51.29999977958456         0.35177901306934123
51.30000000000158         0.3517840821479219
51.31999978205111         0.3830822874166727
51.32000000000158         0.38310585349162984
51.33999978644194         0.4232719929206903
51.34000000000156         0.42333305056876774
51.35999979323248         0.472400714184227
51.360000000001556        0.4724012693315979
51.37999980191023         0.5269613103788797
51.38000000000154         0.5269618729478411
51.39999981044713         0.5777252305264238
51.400000000001526        0.5775969618060043
51.40000018955587         0.5775973843679296
51.42000000000151         0.6144382850434643
51.43999981926403         0.6356821457135433
51.440000000001504        0.6356693074651552
51.45999981998823         0.646114027370674
51.460000000001514        0.6461140844128215
51.479999819962295        0.6508578351656642
51.4800000000015          0.6508578598636396
51.49999981982015         0.6528653244374767
51.500000000001506        0.6528653339885677
51.519999819664655        0.6535241411252625
51.52000000000151         0.6535241426668181
51.539999819477735        0.6534125843020506
51.540000000001505        0.6534125804275774
51.55999981921809         0.652687736866104
51.56000000000151         0.6526877274551632
51.57999981879448         0.6511936621085921
51.580000000001505        0.6511936442023074
51.59999981801305         0.648355981402655
51.6000000000015          0.6483559470958388
51.619999816486086        0.6427973277778164
51.6200000000015          0.6427972587319056
51.63999981351769         0.6315797783053364
51.64000000000152         0.6315796360390936
51.65999980814588         0.6096808054159821
51.66000000000151         0.6097598933555094
51.679999799833965        0.5723240519546464
51.68000000000151         0.5724474092727887
51.699999789793786        0.521345166569922
51.700000000001545        0.5213380386749572
51.71999978098083         0.46663346067994105
51.720000000001534        0.46654826762835505
51.73999977562898         0.41728483380939196
51.74000000000154         0.4172263010308038
51.759999773519446        0.37684153859868375
51.76000000000154         0.37681912405698836
51.77999977299003         0.345247058511776
51.78000000000155         0.3452422983345488
51.79999977279413         0.3213343704688595
51.80000000000154         0.32133540286154266
51.81999977262395         0.3038972565373015
51.82000000000154         0.3038992838516387
51.83999977246148         0.2919837306119846
51.840000000001524        0.2919852594777913
51.85999977230703         0.2849363554886327
51.86000000000154         0.28493707284757386
51.879999772169015        0.28237194222236134
51.88000000000152         0.2823718322871531
51.89999977206862         0.28415881282060473
51.90000000000152         0.2841578786589167
51.91999977205246         0.29040665764749096
51.92000000000153         0.2904049352463487
51.9399997722182          0.30147438080803746
51.940000000001525        0.3014722103123307
51.95999977275787         0.31799078653224117
51.960000000001536        0.31798970477680977
51.979999774018346        0.3408728498744012
51.98000000000152         0.34087314609675934
51.99999977655107         0.3712822653963689
52.00000000000153         0.37128264932595745
52.01999978105645         0.41033781563473076
52.020000000001495        0.41033829288346974
52.03999978802184         0.45809064475552724
52.04000000000149         0.45809119799088815
52.05999979692177         0.5111053335618436
52.060000000001466        0.511105893808816
52.07999980567717         0.5603513868092604
52.08000000000146         0.5603518351128489
52.09999981183907         0.5959395811459769
52.100000000001444        0.5959398460821396
52.11999981472283         0.616356526622187
52.12000000000145         0.6163566536809274
52.13999981546858         0.6264329566915431
52.140000000001436        0.6264330133646127
52.15999981544536         0.6310483281659998
52.160000000001446        0.6310483530631023
52.17999981530297         0.6330385834782282
52.180000000001435        0.6330385934665059
52.19999981514692         0.6337324402810365
52.20000000000144         0.6337328668317705
52.21999981495865         0.6336826157935616
52.22000000000141         0.633682719986624
52.23999981469585         0.6330389110715922
52.24000000000143         0.6330387306291407
52.25999981426502         0.631652081721978
52.26000000000144         0.6316512538720864
52.27999981346748         0.6289729287657294
52.28000000000143         0.6289705492396571
52.299999811905856        0.6236818162119971
52.30000000000142         0.623678265370088
52.31999980886698         0.6129531011137433
52.32000000000142         0.6129640015354308
52.339999803364975        0.5919156961775764
52.34000000000143         0.5919926658877539
52.35999979484985         0.5558535745723104
52.36000000000144         0.5559765357523538
52.379999784563644        0.5064351099668205
52.38000000000146         0.5064301991321075
52.39999977553534         0.45327974518518754
52.400000000001484        0.4531966976484144
52.41999977005436         0.4053039619627504
52.42000000000147         0.40524656783757507
52.439999767896424        0.3659921434301067
52.44000000000148         0.3659701526625198
52.459999767357964        0.33529591647563217
52.46000000000148         0.33529124806407795
52.47999976716133         0.312077547183215
52.48000000000149         0.31207855891716674
52.499999766991           0.2951609349864238
52.50000000000148         0.2951629218918754
52.51999976682864         0.2836185152732156
52.52000000000148         0.28361840945535655
52.53999976667445         0.27681044163082863
52.54000000000148         0.27681038832634924
52.55999976653712         0.27436446532000625
52.560000000001466        0.27436446159623656
52.57999976643833         0.276153561101172
52.580000000001476        0.2761536067633482
52.59999976642582         0.2822865398588768
52.60000000000146         0.2822866374165447
52.61999976659969         0.29311578121508375
52.62000000000147         0.2931159359848389
52.63999976715666         0.3092576188584756
52.64000000000147         0.30925783906481924
52.65999976845211         0.33160960284964275
52.66000000000145         0.33160989929638957
52.679999771051016        0.36130873235414657
52.68000000000145         0.36130911652831543
52.69999977567094         0.39945050989186326
52.70000000000144         0.3994509874415707
52.71999978281117         0.4460820988648856
52.720000000001434        0.4460826523713256
52.73999979193332         0.4978210079143703
52.740000000001416        0.49782453579768243
52.75999980090721         0.5457940479897557
52.76000000000141         0.5456679742609483
52.77999980722379         0.5803524526032695
52.7800000000014          0.5802738696848703
52.79999981018165         0.6001297536632897
52.80000000000141         0.6001186063667713
52.81999981094899         0.609893826653254
52.8200000000014          0.6098976929156964
52.839999810928454        0.6143871275393142
52.8400000000014          0.6143898900320169
52.85999981078582         0.6163476408038796
52.8600000000014          0.6163487617474939
52.879999810629215        0.6170554855711468
52.8800000000014          0.6170558803891123
52.899999810439624        0.6170439345459031
52.900000000001405        0.6170440229998089
52.91999981017368         0.6164578263817454
52.920000000001416        0.616457640622865
52.9399998097356          0.6151534085438044
52.94000000000141         0.6151525947016737
52.95999980892195         0.6126011757488553
52.96000000000141         0.6125988513930618
52.9799998073257          0.6075285659901888
52.98000000000144         0.6075250430150968
52.99999980421632         0.5972027117133178
53.000000000001414        0.5972130352470211
53.01999979858414         0.5768801714755831
53.02000000000141         0.5769553655580706
53.039999789865774        0.5418988324675367
53.040000000001406        0.5420214487484003
53.0599997793335          0.49378786563107585
53.0600000000014          0.4937873003074194
53.07999977008981         0.4419366949012383
53.080000000001405        0.44193612372760027
53.099999764479726        0.3951076353109243
53.10000000000141         0.3951071363917273
53.11999976227338         0.35673568079846785
53.1200000000014          0.35673527832528573
53.13999976172587         0.32677970873148354
53.14000000000139         0.3267793981756368
53.15999976152849         0.30412691077031373
53.16000000000142         0.3041266794564538
53.17999976135805         0.28762658629538757
53.180000000001385        0.2876264223019836
53.19999976119577         0.2763721186740815
53.200000000001396        0.2763720130276088
53.219999761041834        0.26973853463129444
53.220000000001384        0.26973848148163915
53.23999976090521         0.2673624518638096
53.24000000000139         0.26736244827455347
53.259999760808           0.2691196433698626
53.2600000000014          0.2691196891408857
53.27999976079918         0.27511677988506256
53.280000000001394        0.27511687753403535
53.29999976098115         0.2856988376825121
53.300000000001376        0.28569677540185784
53.319999761555444        0.3014694302153631
53.32000000000139         0.3014683977393112
53.33999976288588         0.3233075427362767
53.340000000001396        0.3233122320679924
53.359999765550945        0.35232770830373983
53.36000000000137         0.3523496511270546
53.379999770285444        0.38960472932860324
53.38000000000139         0.3896616825765218
53.3999997776005          0.4351832831767538
53.400000000001356        0.43526474092125395
53.41999978694487         0.4857320723925916
53.420000000001366        0.48573374435265576
53.43999979613722         0.5325265592252371
53.44000000000135         0.5324012822028844
53.45999980260848         0.5661372954927497
53.46000000000132         0.5660608279340783
53.47999980564044         0.5853241174419117
53.480000000001326        0.5853136145180697
53.49999980642937         0.5947948213597632
53.50000000000133         0.5947986119532949
53.51999980641151         0.5991685870383222
53.52000000000132         0.5991712355958411
53.539999806268646        0.6010954418738083
53.540000000001335        0.6010965051574367
53.55999980611148         0.60181090456519
53.560000000001324        0.6018112733108851
53.57999980592054         0.6018294394759984
53.58000000000133         0.6018295156496324
53.59999980565145         0.6012909374011975
53.600000000001344        0.6012909293774173
53.61999980520614         0.600056199451387
53.62000000000132         0.6000561831834165
53.639999804376366        0.597613467695738
53.64000000000133         0.5976134356170206
53.65999980274545         0.5927330287708841
53.66000000000132         0.5927329632567487
53.67999979956563         0.5827673581203425
53.680000000001336        0.5827672217297153
53.69999979380323         0.563090586004619
53.700000000001324        0.5630903179161295
53.719999784881665        0.5290921684600141
53.720000000001335        0.5290917254723273
53.73999977410335         0.4821764027241015
53.74000000000135         0.48217583782882634
53.75999976464431         0.4315213341635781
53.76000000000134         0.43152076277216905
53.77999975890511         0.3857455776374262
53.780000000001344        0.38574507841787775
53.799999756650365        0.348236904458753
53.80000000000135         0.3482365017833641
53.819999756093814        0.3189600607111371
53.820000000001336        0.31895975005448834
53.839999755895676        0.29682538706865297
53.840000000001346        0.29682635700083393
53.85999975572513         0.28070646720248454
53.86000000000134         0.28070839193219177
53.879999755562935        0.2697161356468755
53.88000000000135         0.26971760248363896
53.89999975540927         0.2632426519196396
53.900000000001334        0.2632433588518344
53.919999755273324        0.2609296716808682
53.92000000000136         0.26092960819413974
53.93999975517771         0.26265568710183684
53.94000000000134         0.2626548577071857
53.95999975517257         0.268525631616805
53.960000000001344        0.26852405260960654
53.979999755362655        0.27887825997625254
53.98000000000133         0.27887624696963226
53.99999975595423         0.294304793435818
54.000000000001336        0.29430379383014055
54.01999975731965         0.31566649627260723
54.02000000000133         0.31567109718362973
54.03999976005092         0.34405630684546423
54.04000000000132         0.3440778351073005
54.05999976489995         0.38052930300234045
54.06000000000133         0.38058518778496514
54.07999977238984         0.42512726549688196
54.080000000001306        0.42520683725973013
54.09999978195641         0.4745671509773479
54.10000000000129         0.4745671614620496
54.11999979136725         0.5202650631439801
54.12000000000128         0.5201405535132585
54.13999979799319         0.5529965009919227
54.14000000000127         0.5529219281155293
54.15999980109924         0.5716351976221336
54.160000000001276        0.5716252561406726
54.17999980190976         0.5808305380509248
54.18000000000129         0.5808342601192039
54.19999980189461         0.5850875415290189
54.20000000000129         0.5850875665853281
54.21999980175151         0.5869758355425143
54.220000000001285        0.58697584613391
54.23999980159378         0.5876905046272708
54.24000000000129         0.5876905074924116
54.259999801401484        0.5877288660634471
54.26000000000129         0.5877288636656189
54.27999980112925         0.5872263004458733
54.280000000001294        0.5872262926766901
54.29999980067673         0.58604868001293
54.3000000000013          0.5860486640697766
54.31999979983083         0.5837006206715045
54.320000000001315        0.5837005890558146
54.33999979816526         0.5789905731949405
54.34000000000129         0.5789905084297634
54.35999979491497         0.5693491003317281
54.3600000000013          0.569348965202935
54.37999978902238         0.5502618791106094
54.380000000001296        0.550333875412327