% Model:              ModelBHUpMagnet.mph
% Version:            COMSOL 5.6.0.280
% Date:               Oct 20 2021, 19:12
% Dimension:          1
% Nodes:              998
% Expressions:        1
% Description:        线图
% cln1x                   Height
47.6000000000019          0.18585915712817397
47.620000000001895        0.19124691646932235
47.64000000000189         0.19710675514863454
47.6600000000019          0.20350441920935852
47.6800000000019          0.21051934842571918
47.700000000001886        0.21824854483435613
47.720000000001896        0.22681180393477304
47.74000000000188         0.23635879677691715
47.760000000001874        0.2470787688980086
47.78000000000186         0.25921346878959617
47.800000000001845        0.27307452743865734
47.82000000000185         0.2890604302383803
47.84000000000183         0.3077123845231291
47.86000000000181         0.3297172000827199
47.88000000000181         0.3559728282826174
47.90000000000178         0.3876088582297357
47.920000000001764        0.42592718799968765
47.94000000000174         0.4720412743250896
47.96000000000173         0.5256750841232659
47.980000000001695        0.5826247789875547
48.00000000000168         0.633233855930981
48.02000000000165         0.6678143074698365
48.04000000000164         0.6853619242135205
48.060000000001644        0.6918021068262935
48.08000000000164         0.6929140194633635
48.10000000000163         0.6915141902594816
48.120000000001625        0.6880969266269931
48.14000000000162         0.6815695974596714
48.160000000001624        0.6690413485786962
48.180000000001655        0.6454546841379207
48.200000000001644        0.6061484915498748
48.22000000000168         0.5533815665552319
48.2400000000017          0.49740224807234606
48.2600000000017          0.4472090277566657
48.28000000000172         0.40594078951802876
48.30000000000171         0.3730976427840642
48.320000000001706        0.3471360254896939
48.3400000000017          0.32654147519013565
48.36000000000171         0.3100951778457581
48.38000000000171         0.2968711678157903
48.40000000000171         0.2861891527264145
48.42000000000169         0.27753903723885276
48.4400000000017          0.27053537662456667
48.46000000000171         0.26489243221339437
48.480000000001695        0.26040153850137343
48.500000000001705        0.25691681272572203
48.520000000001694        0.2543275607563184
48.54000000000169         0.2525488784408348
48.56000000000169         0.2515155670675578
48.58000000000169         0.25119551097256343
48.600000000001685        0.25158042735294334
48.62000000000168         0.25269419653930114
48.6400000000017          0.2545752207084525
48.66000000000169         0.2572771197127091
48.680000000001684        0.2608683126189464
48.70000000000168         0.2654482959880707
48.72000000000168         0.2711518977402922
48.74000000000168         0.2781713581377323
48.76000000000167         0.2867510463270158
48.78000000000167         0.29719466371555797
48.800000000001674        0.30989072745947444
48.8200000000017          0.3253413739473886
48.84000000000167         0.3442118220550136
48.860000000001676        0.3673652355632413
48.88000000000166         0.395909668475837
48.90000000000167         0.43123687712230635
48.920000000001664        0.47502094887134444
48.940000000001646        0.5287700611729523
48.960000000001635        0.592659109384165
48.980000000001624        0.6626156560564757
49.00000000000161         0.7279950833669624
49.020000000001595        0.7766401947603714
49.04000000000159         0.8052447670366545
49.0600000000016          0.8190876331076764
49.0800000000016          0.8245241297338384
49.100000000001586        0.8252569330453606
49.12000000000161         0.8223943952214982
49.140000000001606        0.814869892715365
49.1600000000016          0.7990776392863272
49.18000000000161         0.7688061879606338
49.20000000000161         0.7187719634853736
49.220000000001626        0.6522473029957752
49.24000000000163         0.5817705034399726
49.26000000000164         0.5176455418081661
49.28000000000164         0.46382667421653023
49.30000000000164         0.42006298176199247
49.32000000000163         0.3847778469004732
49.34000000000163         0.35630722553339333
49.360000000001634        0.3332429585153142
49.38000000000164         0.3144719889393248
49.40000000000163         0.29913457422743284
49.42000000000163         0.2865709543208664
49.44000000000163         0.2762751228231199
49.46000000000163         0.26785994292533694
49.480000000001624        0.2610279290417785
49.50000000000163         0.2555529996006576
49.52000000000162         0.2512623872523579
49.54000000000162         0.2480269632772846
49.56000000000162         0.24575391463634702
49.58000000000163         0.24438202145114346
49.60000000000162         0.24387704576984143
49.62000000000163         0.24422914216223468
49.64000000000162         0.24545143448432089
49.66000000000161         0.24758062553411755
49.680000000001606        0.2506807213610171
49.70000000000162         0.2548477816311786
49.72000000000162         0.2602148209627056
49.74000000000161         0.2669584132110152
49.760000000001625        0.275308087197981
49.780000000001614        0.28556124539007366
49.80000000000162         0.2981060408290703
49.82000000000161         0.3134433229295896
49.84000000000161         0.3322307222322095
49.860000000001605        0.3553178544494757
49.88000000000161         0.38379787484449523
49.900000000001604        0.41904263851317775
49.92000000000159         0.46265763544151867
49.94000000000159         0.5161329112050581
49.96000000000158         0.5796353540122603
49.98000000000156         0.6492155119059974
50.00000000000155         0.7141139282243543
50.02000000000152         0.7623379700679983
50.040000000001534        0.7907319675136428
50.06000000000154         0.8045895988087317
50.080000000001526        0.8101918287899423
50.10000000000153         0.8111704131761064
50.12000000000151         0.8086062781036137
50.14000000000152         0.8014479745260761
50.16000000000152         0.7861425388287023
50.180000000001534        0.756537300086522
50.200000000001566        0.7073261859800481
50.220000000001555        0.641657198268181
50.24000000000157         0.5717233769297245
50.2600000000016          0.5081062360208604
50.280000000001586        0.4546174096816455
50.30000000000158         0.4110208941452817
50.32000000000158         0.3757921734093194
50.3400000000016          0.3473104856511694
50.360000000001584        0.32419392325826696
50.38000000000158         0.3053542474246343
50.400000000001576        0.2899397168097076
50.42000000000158         0.27729798581583187
50.440000000001575        0.266928419392872
50.460000000001564        0.25844666761434054
50.48000000000157         0.25155756570115784
50.50000000000158         0.24603489813012605
50.52000000000158         0.24170640782617459
50.54000000000157         0.23844279986510347
50.56000000000157         0.23615070878166147
50.58000000000156         0.2347672892422252
50.60000000000157         0.2342572294878412
50.62000000000158         0.234610003485701
50.640000000001564        0.23583909876036696
50.66000000000155         0.23798253390045299
50.68000000000157         0.24110435663542906
50.70000000000157         0.24529825639681258
50.72000000000155         0.2506936058924495
50.740000000001565        0.25746402094470466
50.760000000001554        0.2658374724425705
50.78000000000156         0.27610979048585194
50.800000000001546        0.2886643158319227
50.82000000000154         0.30399848658553624
50.840000000001545        0.32275949148340016
50.860000000001534        0.3457873974365996
50.880000000001544        0.3741630449946393
50.90000000000155         0.4092352582536635
50.920000000001544        0.45258424125060703
50.940000000001525        0.5056733572266464
50.96000000000152         0.5686536363730806
50.980000000001496        0.6375980417585568
51.00000000000149         0.701984274987827
51.02000000000148         0.7496628452960307
51.04000000000147         0.777699809716979
51.06000000000147         0.7914877574046488
51.08000000000147         0.7971837063914486
51.100000000001494        0.7983299947945032
51.12000000000147         0.7959779842704641
51.140000000001464        0.7890981860177977
51.160000000001475        0.7741910354478284
51.180000000001485        0.7451730740831002
51.200000000001495        0.6967402925953209
51.22000000000149         0.6318820734547169
51.240000000001515        0.562714445705582
51.26000000000152         0.499666320943263
51.280000000001536        0.44657921202386447
51.30000000000151         0.4032501541517048
51.320000000001514        0.36819098971470343
51.34000000000151         0.3398111016589998
51.36000000000151         0.31675378126414
51.380000000001516        0.2979399427008428
51.40000000000151         0.2825325373276681
51.420000000001515        0.2698872445808507
51.440000000001504        0.25950834961909564
51.46000000000153         0.2510166680347554
51.4800000000015          0.244117787383975
51.500000000001506        0.23858629912456863
51.5200000000015          0.23425075424219247
51.540000000001505        0.2309831411819292
51.560000000001494        0.22869114060562293
51.58000000000149         0.22731248783955565
51.6000000000015          0.22681136455742326
51.6200000000015          0.22717623322112404
51.64000000000149         0.228419304051588
51.66000000000148         0.23057727814869125
51.6800000000015          0.2337141770916227
51.7000000000015          0.23792392160725537
51.72000000000149         0.24333591654339937
51.74000000000149         0.250122386522889
51.76000000000149         0.2585084533537082
51.780000000001486        0.2687864420632683
51.80000000000149         0.28133546911200175
51.82000000000148         0.2966481387569556
51.84000000000149         0.31536442214815386
51.8600000000015          0.33831409372726257
51.88000000000148         0.3665643772305014
51.90000000000148         0.40144670364031965
51.920000000001465        0.44452010112177476
51.94000000000146         0.49722609701765685
51.96000000000145         0.5598186145420625
51.98000000000143         0.6280730822268998
52.00000000000142         0.6916794355201471
52.02000000000142         0.7390074925364275
52.040000000001406        0.7667750994740049
52.06000000000141         0.780493304853104
52.0800000000014          0.7862443185989716
52.1000000000014          0.7875144471440786
52.120000000001404        0.7853421157967942
52.14000000000139         0.7787053370732014
52.1600000000014          0.7641280591183086
52.180000000001414        0.7355423631726314
52.200000000001424        0.6878823923221523
52.22000000000144         0.6237439276828487
52.240000000001444        0.5552165546450492
52.260000000001455        0.49267046007365956
52.28000000000145         0.4399477189274454
52.30000000000146         0.3968701711047587
52.32000000000146         0.36197780003673025
52.34000000000147         0.3337040833928283
52.36000000000145         0.3107110692418944
52.38000000000146         0.29193393978300647
52.400000000001484        0.2765457246329409
52.420000000001444        0.26390903406983396
52.44000000000145         0.25353308099620975
52.460000000001436        0.24503983110362454
52.480000000001446        0.23813827117202366
52.50000000000145         0.23260520926321004
52.52000000000145         0.2282705934655298
52.540000000001434        0.22500741613234934
52.560000000001445        0.2227230612719012
52.580000000001455        0.22135439370469787
52.60000000000144         0.2208647400181979
52.62000000000144         0.22124208115052088
52.64000000000143         0.22249902431313526
52.66000000000144         0.22467278329780285
52.68000000000142         0.22782684204855502
52.70000000000143         0.23205416710635735
52.72000000000142         0.23748228143017766
52.74000000000143         0.24428053396971858
52.76000000000144         0.25267301142077847
52.780000000001415        0.2629496852093765
52.80000000000144         0.2754871176354144
52.82000000000142         0.2907733369074511
52.840000000001424        0.30944131940981967
52.860000000001435        0.33231137513222186
52.88000000000142         0.3604390663086641
52.90000000000141         0.3951498756721877
52.920000000001416        0.437993429778222
52.9400000000014          0.490399566751309
52.96000000000139         0.5524641822295976
52.98000000000138         0.6201885215329229
53.000000000001364        0.6832545995187279
53.020000000001374        0.7300395193629408
53.04000000000134         0.7576431114235463
53.060000000001374        0.771302029754125
53.080000000001355        0.7770850985036527
53.10000000000135         0.778445946972107
53.120000000001355        0.7764026644496747
53.14000000000135         0.7699432001507729
53.160000000001354        0.7556311224123853
53.180000000001364        0.7274529465829346
53.20000000000138         0.6802152482820447
53.22000000000138         0.6168510763210946
53.24000000000138         0.5489721322904808
53.26000000000139         0.48684306598778077
53.280000000001394        0.4344102119249765
53.30000000000138         0.3915393444187269
53.32000000000138         0.3568111018359905
53.340000000001396        0.3286479539458269
53.36000000000138         0.3057273389939086
53.38000000000139         0.28699572234490134
53.40000000000138         0.27163439645845916
53.42000000000138         0.2590123024321631
53.440000000001376        0.24864342454548027
53.46000000000137         0.2401530788886437
53.480000000001375        0.23325188433391272
53.50000000000137         0.22771846386490663
53.52000000000137         0.2233823666947232
53.54000000000138         0.22011723128802718
53.56000000000138         0.21783146459200642
53.58000000000137         0.21646312978384297
53.60000000000137         0.21597640970005486
53.62000000000137         0.21635953487466
53.64000000000137         0.21762415201959215
53.66000000000137         0.21980636960702615
53.680000000001364        0.22296891139463534
53.70000000000136         0.2272043479360905
53.72000000000137         0.23264008735433314
53.74000000000138         0.2394455324310247
53.76000000000136         0.24784181237126227
53.78000000000136         0.25811602199115424
53.800000000001354        0.27064035055202973
53.82000000000135         0.2858981541812743
53.84000000000136         0.30451347460698974
53.86000000000134         0.32730484014982153
53.88000000000135         0.3553146305752707
53.90000000000133         0.3898543315431079
53.92000000000136         0.43245718404760347
53.94000000000134         0.48453697257869166
53.96000000000134         0.5461818273534524
53.98000000000132         0.6134116154231065
54.00000000000132         0.6759763897439097
54.020000000001296        0.7223607119223462
54.04000000000129         0.749733828068748
54.0600000000013          0.763314926501662
54.080000000001306        0.7690998616249574
54.1000000000013          0.7705065432936108
54.120000000001305        0.7685436146564468
54.14000000000132         0.7622145288028241
54.16000000000132         0.7481419816261329
54.180000000001314        0.7202984435321098
54.2000000000013          0.6735492811329177
54.220000000001306        0.6107333010113419
54.24000000000131         0.5433620621156683
54.260000000001305        0.4816467027702605
54.2800000000013          0.42952709757951607
54.300000000001305        0.3868913390082759
54.32000000000131         0.3523149252124046
54.3400000000013          0.3242604025730085
54.36000000000129         0.30141491224701994
54.38000000000129         0.2827361529873626
54.400000000001306        0.2674072904184613
54.42000000000131         0.2548057768794709
54.440000000001284        0.24444956709141497
54.4600000000013          0.23596693030532145
54.480000000001304        0.2290711637443864
54.500000000001315        0.22354127477169586
54.520000000001296        0.21920838850615051
54.5400000000013          0.21594601739843305
54.560000000001295        0.21366297643557225
54.5800000000013          0.21229777756382545
54.6000000000013          0.2118149493694047
54.62000000000129         0.21220294428416486
54.6400000000013          0.21347336138234776
54.66000000000129         0.2156616475894598
54.68000000000131         0.21882974290505525
54.70000000000128         0.22306914875254313
54.7200000000013          0.22850664742124277
54.740000000001295        0.23530980226331144
54.76000000000129         0.24369883562795083
54.78000000000129         0.253959086376242
54.8000000000013          0.26646024714452465
54.82000000000129         0.2816816689476534
54.84000000000129         0.30024521351397
54.8600000000013          0.3229559934148452
54.88000000000128         0.3508477468649719
54.900000000001285        0.38521550865199544
54.920000000001295        0.4275691614413482
54.940000000001284        0.47937879142875556
54.96000000000128         0.5406363509757246
54.980000000001255        0.6074091302949375
55.00000000000124         0.6695056950569281
55.02000000000123         0.7155045253506949
55.040000000001235        0.7426397115657232
55.06000000000124         0.7561164613873714
55.08000000000124         0.7618806955653673
55.10000000000122         0.7633139459654635
55.12000000000124         0.7614159806934395
55.14000000000124         0.7551941145396911
55.16000000000123         0.741281577106856
55.180000000001236        0.7137579001855378
55.20000000000125         0.6675828085962076
55.22000000000125         0.605115217760461
55.24000000000125         0.5381331139292798
55.26000000000127         0.47692016392873576
55.28000000000126         0.4251026660141446
55.30000000000126         0.38268977429081596
55.32000000000126         0.34827385834855246
55.34000000000127         0.32033303232230076
55.36000000000126         0.29756708440360663
55.38000000000125         0.27894102349380545
55.40000000000124         0.2636505094840357
55.420000000001245        0.25107498127849315
55.44000000000126         0.24073608718355577
55.46000000000125         0.23226457410412146
55.48000000000125         0.22537546506261785
55.50000000000126         0.2198485774749747
55.520000000001254        0.21551721295699902
55.54000000000126         0.21225641188082864
55.560000000001246        0.20997563255409382
55.58000000000125         0.20861354303941076
55.60000000000125         0.2081346581657137
55.62000000000126         0.20852722395882609
55.640000000001244        0.2098022997840571
55.66000000000123         0.21199498284505872
55.68000000000124         0.21516649119984985
55.700000000001246        0.21940833028949364
55.72000000000124         0.2248453533172907
55.74000000000125         0.2316454616927671
55.76000000000123         0.2400265483988158
55.78000000000124         0.25027165463157774
55.80000000000124         0.2627492893110477
55.82000000000123         0.2779320815732932
55.840000000001226        0.29643816567040543
55.86000000000122         0.31906588871540587
55.88000000000122         0.34684040086168055
55.90000000000123         0.38104586910967636
55.920000000001224        0.4231795021652809
55.94000000000121         0.47462020279294176
55.96000000000121         0.5354746903392222
55.9800000000012          0.6019008602628584
56.00000000000117         0.6637075389668667
56.0200000000012          0.7091894140542738
56.04000000000117         0.7360783548996019
56.06000000000118         0.7494360640357746
56.08000000000117         0.7551644386674942
56.10000000000117         0.7566092475255137
56.12000000000116         0.7547541434361911
56.140000000001145        0.7486205463031215
56.160000000001155        0.73489465135372
56.180000000001165        0.7077384373414786
56.20000000000119         0.661878505802275
56.220000000001185        0.5998874675811032
56.240000000001196        0.5333563670861008
56.260000000001206        0.4724445927532758
56.2800000000012          0.42096608229002347
56.30000000000119         0.378797573096711
56.3200000000012          0.34455268979309583
56.34000000000122         0.3167314903725946
56.36000000000119         0.29404616218926244
56.3800000000012          0.27547879265095127
56.4000000000012          0.26022858709495633
56.420000000001195        0.2476799395089198
56.440000000001206        0.23735827903156123
56.46000000000119         0.22889750056524164
56.48000000000119         0.22201514132565958
56.50000000000119         0.21649362430967894
56.5200000000012          0.21216704681908843
56.54000000000118         0.20891090663742537
56.560000000001196        0.2066345755172606
56.580000000001164        0.20527601174054444
56.60000000000118         0.2047989680281959
56.62000000000117         0.205191497275182
56.64000000000117         0.20646567460526832
56.660000000001176        0.2086575926572915
56.68000000000117         0.21182895075883185
56.700000000001175        0.21607033018294497
56.72000000000117         0.2215059921214388
56.740000000001174        0.2283009768533407
56.76000000000116         0.23667114916007803
56.780000000001166        0.24689729170784078
56.80000000000115         0.2593439657942999
56.82000000000116         0.2744835315720219
56.84000000000114         0.2929278298120578
56.86000000000114         0.3154688395795626
56.88000000000115         0.34312454339319093
56.90000000000114         0.3771645528844021
56.92000000000114         0.41907422677838907
56.94000000000113         0.47022006541196043
56.96000000000113         0.5307016368206554
56.98000000000111         0.5966898827858291
57.00000000000111         0.658046996653666
57.02000000000108         0.703259031728982
57.04000000000109         0.7298331294833704
57.06000000000108         0.7430582704553234
57.08000000000108         0.7487503898958707
57.10000000000108         0.7502022036268283
57.12000000000109         0.7483827397043471
57.14000000000109         0.7423271626342244
57.16000000000108         0.7287538804146604
57.1800000000011          0.7018672527121429
57.200000000001076        0.6564037532638869
57.220000000001086        0.5948736513160198
57.240000000001096        0.5287831485621632
57.26000000000109         0.46824352888348525
57.2800000000011          0.41705842489822315
57.300000000001106        0.37511293144810787
57.320000000001095        0.3410342328934422
57.340000000001105        0.3133353699882223
57.36000000000111         0.2907422792273604
57.3800000000011          0.27223873615115646
57.400000000001086        0.2570339460859342
57.42000000000108         0.2445172520432961
57.440000000001085        0.2342176732135308
57.46000000000109         0.22577116243582082
57.480000000001084        0.21889841736641225
57.50000000000107         0.21338269307070523
57.520000000001076        0.20905910204816924
57.54000000000109         0.20580388429605603
57.56000000000108         0.20352725340230968
57.58000000000108         0.20216837982127656
57.60000000000107         0.20169207232358105
57.62000000000107         0.20208684586223227
57.64000000000106         0.20336411616021038
57.66000000000106         0.20555836724116675
57.680000000001066        0.208729575572242
57.70000000000106         0.21296693147450863
57.72000000000108         0.21839401238828168
57.740000000001054        0.2251758077142749
57.76000000000107         0.23352805359607884
57.78000000000106         0.24373039570138927
57.800000000001056        0.2561441618627593
57.82000000000106         0.27123698095327864
57.84000000000105         0.2896150922465501
57.860000000001044        0.3120644403215893
57.88000000000104         0.33959552718731595
57.90000000000104         0.373475764702426
57.92000000000104         0.4151851220648131
57.94000000000104         0.4660830537183903
57.960000000001024        0.5262285737249274
57.98000000000102         0.59169624254458
58.000000000001           0.6525901446850937
58.020000000001           0.6974308962025328
58.040000000001           0.7237651852238824
58.06000000000099         0.7368687691229744
58.08000000000099         0.7425138339740077
58.100000000001           0.7439616838997427
58.12000000000101         0.7421745863545963
58.140000000001           0.7361929391732842
58.160000000001006        0.7227450659017624
58.180000000001           0.6960390566840936
58.20000000000101         0.6509256574502726
58.220000000000994        0.5899866618692325
58.24000000000099         0.5243347293432039
58.26000000000099         0.46416838239965286
58.28000000000098         0.41328012546179277
58.30000000000098         0.371562604972135
58.32000000000097         0.33765588814118763
58.340000000000984        0.31008549941566454
58.36000000000097         0.28758776379687767
58.380000000000976        0.26915460997874097
58.40000000000097         0.2540014850952833
58.42000000000098         0.2415224589271881
58.44000000000096         0.23125011134731743
58.46000000000095         0.2228236083758653
58.48000000000098         0.21596438018331857
58.500000000000966        0.21045794622720213
58.52000000000096         0.20614047987120046
58.54000000000096         0.20288888342353942
58.56000000000097         0.2006140950149556
58.58000000000096         0.1992554449202443
58.60000000000095         0.19877788591979767
58.62000000000094         0.1991699819640573
58.640000000000946        0.20044330055710904
58.660000000000956        0.20263300645546062
58.68000000000096         0.20579969188615027
58.70000000000095         0.2100325416227013
58.720000000000944        0.21545392105571998
58.740000000000954        0.22222599608565155
58.76000000000095         0.23056049979273618
58.78000000000095         0.240735444699845
58.80000000000094         0.25310970889272755
58.82000000000094         0.26814880686552744
58.84000000000095         0.28645531697809756
58.86000000000094         0.3088085083137364
58.88000000000093         0.3362098156244165
58.900000000000944        0.36991615347969575
58.920000000000954        0.4113958006638062
58.940000000000936        0.4619963305824813
58.96000000000094         0.5217702115637579
58.98000000000091         0.5868046894066578
59.00000000000092         0.6471164653155896
59.02000000000089         0.6916234381465697
59.040000000000894        0.7177969105085318
59.06000000000089         0.7307951310022377
59.08000000000089         0.7363862062553179
59.1000000000009          0.7378213871980118
59.12000000000089         0.7360585171410586
59.14000000000091         0.730144457751769
59.16000000000089         0.7168384408244909
59.1800000000009          0.6903903559774626
59.2000000000009          0.6456616290377135
59.2200000000009          0.5851955732191751
59.2400000000009          0.520072138909715
59.26000000000091         0.4602513223163508
59.280000000000896        0.40962129345818754
59.3000000000009          0.3681070703591583
59.320000000000924        0.3343791049606858
59.34000000000089         0.30694398617345614
59.360000000000895        0.2845481923176421
59.380000000000884        0.2661916060029403
59.400000000000894        0.2510957509810858
59.42000000000089         0.2386593259397796
59.4400000000009          0.22841848650040492
59.460000000000875        0.22001516194936244
59.48000000000088         0.21317284923386984
59.500000000000895        0.2076785980582301
59.52000000000088         0.2033696789620461
59.54000000000089         0.2001238754682961
59.56000000000087         0.19785245411782182
59.58000000000088         0.19649523047400966
59.600000000000854        0.1960173288921117
59.620000000000864        0.1964074664713051
59.64000000000086         0.19767716815811148
59.660000000000856        0.1998606912479256
59.68000000000085         0.20301832521584431
59.700000000000855        0.20723860288711696
59.720000000000866        0.21264366841629623
59.740000000000855        0.21939573123783693
59.76000000000085         0.22770657893671734
59.780000000000854        0.23785034173409816
59.80000000000084         0.2501821479898871
59.82000000000084         0.2651623310262801
59.84000000000084         0.28338870947656175
59.86000000000085         0.30563180847603877
59.88000000000084         0.3328926540413265
59.90000000000086         0.36641481474503906
59.92000000000084         0.4076537091557321
59.940000000000836        0.45794478958382545
59.960000000000825        0.5173346603164808
59.980000000000814        0.5819242237008555
60.0000000000008          0.6417813427001977
60.02000000000081         0.6859068856956968
60.04000000000079         0.711829694427489
60.06000000000079         0.724696146265739
60.08000000000078         0.7302308828279092
60.10000000000079         0.7316535820447365
60.12000000000077         0.7299080943784637
60.14000000000076         0.7240560951138887
60.16000000000078         0.7109081286863346
60.18000000000079         0.6847972521800828
60.200000000000784        0.6404982096980641
60.22000000000079         0.5803586627912335
60.240000000000805        0.5156869812531756
60.2600000000008          0.4562564150913287
60.2800000000008          0.4059421006452625
60.30000000000082         0.3646830026246992
60.3200000000008          0.33113714151106344
60.3400000000008          0.3038461014720997
60.360000000000795        0.281562310593035
60.380000000000784        0.2632918593564956
60.40000000000077         0.24826352467810947
60.42000000000077         0.23587656094873521
60.440000000000786        0.22567306146470745
60.46000000000078         0.2172976321221735
60.4800000000008          0.21047586606106186
60.50000000000078         0.2049964825364627
60.52000000000079         0.20069806286965072
60.54000000000078         0.19745930275537638
60.56000000000079         0.19519202908381034
60.58000000000077         0.1938363648612591
60.600000000000776        0.19335756585122474
60.62000000000077         0.1937441772419987
60.64000000000077         0.19500741846060987
60.660000000000764        0.19718175922476058
60.68000000000075         0.20032673857561598
60.70000000000078         0.2045301822556889