% Model:              ModelBHUpMagnet.mph
% Version:            COMSOL 5.6.0.280
% Date:               Oct 21 2021, 16:25
% Dimension:          1
% Nodes:              955
% Expressions:        1
% Description:        线图
% cln2x                   Height
24.160000000000004        0.12979915196149305
24.184713499978148        0.14314828892625237
24.1977018260474          0.15159911822044472
24.244745801843553        0.1938449466218882
24.24691670403658         0.19528754573174728
24.24755436829358         0.19601499006576992
24.29076341077144         0.253991790472836
24.29839717631804         0.2683689359241993
24.316727747312896        0.30443813528096547
24.324266258014006        0.31888174723670154
24.32844372969364         0.3267534555985732
24.34332269306596         0.3585861412975932
24.359999999999996        0.387933232425973
24.38000000000225         0.4138620241456402
24.400000000003775        0.4283102437091584
24.420000000004592        0.4354025319030505
24.44000000000499         0.43875294463569914
24.46000000000518         0.4403243705517958
24.480000000005266        0.4410134286221019
24.500000000005297        0.44119548017898447
24.520000000005314        0.4409781710384469
24.540000000005328        0.4402719858752377
24.56000000000532         0.43872850107010364
24.580000000005306        0.43550320212596305
24.60000000000532         0.42875369151501325
24.620000000005337        0.4151355197844312
24.640000000005365        0.3908368422625832
24.66000000000541         0.3566240329694995
24.680000000005453        0.31924722440066244
24.700000000005492        0.28536366061988394
24.720000000005506        0.25763762203161505
24.740000000005526        0.23606780574849143
24.76000000000552         0.21983389201797915
24.78000000000552         0.2080878923567174
24.80000000000553         0.20016498420244647
24.820000000005518        0.19560997921592424
24.840000000005514        0.19416145630285128
24.860000000005517        0.19573465029808726
24.880000000005516        0.20041720910650354
24.9000000000055          0.20847356028145542
24.9200000000055          0.2203621956822202
24.940000000005515        0.2367515074466044
24.960000000005504        0.2584930210377069
24.98000000000549         0.28640943114731104
25.000000000005464        0.3204995445291793
25.020000000005407        0.35808374997239106
25.040000000005346        0.39247305743232386
25.060000000005303        0.4168334804382401
25.08000000000527         0.4305605888727973
25.10000000000525         0.4373421533741725
25.12000000000523         0.44057135662869445
25.140000000005234        0.44211140507214547
25.160000000005226        0.44281359860364056
25.18000000000523         0.44303106000597287
25.200000000005222        0.44285995716318416
25.22000000000521         0.4422041149114259
25.240000000005207        0.4407104409408511
25.26000000000521         0.4375276801605632
25.280000000005217        0.4307925499213233
25.300000000005216        0.4171112461355626
25.32000000000526         0.3927945946485035
25.34000000000531         0.35844683595324667
25.360000000005357        0.3209060312192463
25.380000000005385        0.28686630979013505
25.400000000005413        0.2589931103685607
25.42000000000541         0.23733364615160463
25.44000000000542         0.22102679693232516
25.46000000000542         0.209226876877372
25.48000000000542         0.20126905718791593
25.500000000005414        0.1966971717745957
25.52000000000541         0.19524886775956024
25.54000000000541         0.1968398296198729
25.560000000005395        0.20155787363867142
25.58000000000541         0.20966932246767417
25.600000000005398        0.22163572933434927
25.62000000000539         0.23812993102071195
25.640000000005383        0.2600093576296653
25.660000000005372        0.28810307724652107
25.68000000000534         0.32235271724565806
25.7000000000053          0.3602531584458632
25.720000000005243        0.3948744404631488
25.740000000005196        0.41942290203820526
25.76000000000516         0.43328295601797784
25.78000000000515         0.44013968375634155
25.800000000005138        0.4434313765271773
25.82000000000513         0.4450224251050219
25.840000000005126        0.4457688311697006
25.86000000000512         0.4460263219566271
25.880000000005115        0.4458917112049689
25.90000000000511         0.445268244473362
25.920000000005114        0.4438001887142036
25.940000000005107        0.44062707718405847
25.960000000005106        0.43388658906022465
25.98000000000512         0.42018847312098473
26.000000000005148        0.3957727713790345
26.020000000005187        0.361102836455252
26.04000000000524         0.32323952549347335
26.060000000005275        0.28898313263522335
26.080000000005292        0.2609626928842263
26.100000000005288        0.2391578322289728
26.1200000000053          0.22274548867081118
26.140000000005298        0.21087416437223558
26.1600000000053          0.20287438681803271
26.1800000000053          0.1982870891683441
26.200000000005293        0.1968486912258696
26.22000000000529         0.19847496490802066
26.240000000005292        0.20325510485381723
26.26000000000528         0.21145826818062868
26.280000000005284        0.22355143643460476
26.300000000005284        0.2402076585818715
26.320000000005273        0.26228892197705755
26.340000000005258        0.2906280797076984
26.360000000005233        0.32525182766837585
26.380000000005182        0.3635203628827342
26.400000000005132        0.39859063743244033
26.42000000000509         0.423346621759922
26.44000000000505         0.4373093136818175
26.46000000000503         0.44425981650954033
26.48000000000503         0.44761135514564043
26.500000000005024        0.4492464312672827
26.520000000005016        0.45002754193859684
26.540000000005012        0.4503149307722122
26.560000000005015        0.4502058400322984
26.58000000000501         0.4496020496464905
26.600000000004997        0.4481436586108072
26.620000000005           0.44496486023583137
26.640000000004996        0.438179707246422
26.660000000005013        0.42436556520404506
26.680000000005037        0.39961890419129376
26.700000000005083        0.3647266779920523
26.720000000005125        0.32650141829069607
26.740000000005168        0.2919172974327481
26.760000000005178        0.263629932896584
26.780000000005188        0.24161929608320049
26.800000000005195        0.2250550226357891
26.820000000005194        0.2130763838199309
26.840000000005183        0.20501174487255608
26.860000000005197        0.20039599661670648
26.88000000000519         0.19896287721296174
26.900000000005186        0.20062763613651888
26.92000000000517         0.20548093184572774
26.940000000005174        0.21379519277733675
26.960000000005166        0.22604129027406883
26.980000000005166        0.24290407318448268
27.00000000000516         0.2652542535272431
27.020000000005147        0.2939348792568549
27.040000000005126        0.32903439327939693
27.060000000005083        0.36769380812342617
27.080000000005032        0.4030936097690297
27.10000000000498         0.42821088509803173
27.12000000000495         0.442412254566819
27.140000000004925        0.4494776370791258
27.16000000000492         0.4528906609753357
27.18000000000492         0.45456540125472655
27.20000000000492         0.4553766526435242
27.22000000000491         0.4556872958725755
27.240000000004905        0.45559582371701846
27.260000000004894        0.4550028424867269
27.280000000004893        0.45354398528851253
27.300000000004893        0.45034263593512935
27.32000000000489         0.44348939878853877
27.3400000000049          0.42951962142180317
27.360000000004938        0.4044829039472724
27.38000000000497         0.36916890425615206
27.40000000000501         0.33055928080033586
27.420000000005054        0.29554812728895835
27.44000000000507         0.2669003744582487
27.460000000005074        0.24462026845607399
27.480000000005077        0.22786246984335112
27.500000000005084        0.21575187878960256
27.520000000005087        0.2076026099106541
27.540000000005083        0.20294542616689365
27.56000000000508         0.20151154691687276
27.580000000005068        0.2032151714421389
27.600000000005057        0.2081491877029981
27.620000000005057        0.2165902046990446
27.640000000005056        0.22901659484999126
27.660000000005056        0.24612528659889304
27.680000000005048        0.2688045026672533
27.700000000005048        0.29791369221687597
27.720000000005008        0.33345733377982956
27.74000000000497         0.3726556118330826
27.76000000000492         0.4085546641802149
27.780000000004875        0.434036315026449
27.80000000000485         0.44845484758769316
27.820000000004836        0.4556385631250247
27.840000000004824        0.45911765047514175
27.860000000004817        0.4608327822742148
27.880000000004813        0.4616713190634225
27.90000000000481         0.46200149286648307
27.920000000004812        0.4619234156764926
27.940000000004808        0.46133643741193164
27.9600000000048          0.4598713795089345
27.980000000004797        0.4566383566705011
28.000000000004796        0.4496900047416655
28.02000000000481         0.43548106644997603
28.040000000004834        0.4101603025594984
28.060000000004877        0.37435982153846614
28.080000000004915        0.3352175636852353
28.100000000004936        0.29972346541643735
28.12000000000495         0.270681436416149
28.140000000004957        0.24809349048404813
28.16000000000496         0.23111481462248196
28.180000000004963        0.21884662027533383
28.200000000004962        0.2105957454220421
28.22000000000495         0.20588705799698295
28.240000000004947        0.20444834939984916
28.260000000004947        0.20619366094208144
28.280000000004947        0.21121719161038321
28.300000000004946        0.21980016499863514
28.320000000004942        0.23242851005153808
28.34000000000494         0.24980988323330175
28.36000000000493         0.2728460951167096
28.380000000004923        0.3024100030250137
28.400000000004894        0.33850721204204076
28.42000000000484         0.37831818141009965
28.440000000004805        0.4147859060875854
28.460000000004754        0.440740353842775
28.48000000000473         0.45535125019505446
28.500000000004707        0.4626548247326465
28.520000000004693        0.46620412498918995
28.540000000004696        0.4679603317240044
28.560000000004685        0.46882462868588
28.58000000000468         0.4691716833106648
28.600000000004673        0.4691034291386652
28.620000000004666        0.46851775581092486
28.640000000004665        0.4670394807985778
28.660000000004665        0.4637642704558537
28.68000000000466         0.45672025065702854
28.700000000004678        0.44234591541917745
28.720000000004703        0.4166835052536303
28.740000000004752        0.38022754084493315
28.760000000004787        0.3404105996394798
28.780000000004826        0.30438846196981556
28.80000000000485         0.2749290094085088
28.820000000004868        0.2520128713919421
28.840000000004867        0.2347759510547784
28.860000000004852        0.2223239087457817
28.880000000004856        0.2139535461118834
28.900000000004844        0.2091826400856555
28.92000000000485         0.20773461251465164
28.940000000004844        0.20952216598450793
28.96000000000484         0.21464124257512976
28.980000000004836        0.2233779236385633
29.000000000004835        0.23622636500154703
29.02000000000484         0.2539025817670038
29.04000000000483         0.2773166163513634
29.060000000004816        0.3073520893159729
29.08000000000479         0.34404036760986306
29.100000000004748        0.38459546411231454
29.120000000004694        0.42178591016121053
29.140000000004655        0.4480791086581195
29.160000000004626        0.4629492102114536
29.180000000004608        0.4703870743493481
29.200000000004593        0.47400551167319577
29.22000000000459         0.47580004175303586
29.240000000004592        0.4766858911271762
29.26000000000459         0.4770455882237846
29.28000000000459         0.4769825760160436
29.300000000004573        0.47639266456459467
29.320000000004587        0.4748936658690189
29.340000000004576        0.4715661417656679
29.360000000004575        0.464408282438555
29.380000000004586        0.44979103910218515
29.400000000004606        0.4236958355917351
29.420000000004645        0.3866299544523926
29.440000000004684        0.3461504945994104
29.46000000000471         0.30953064075111153
29.480000000004733        0.27958344596072837
29.50000000000475         0.256289121310665
29.520000000004742        0.2387692197059425
29.540000000004742        0.22611274937812023
29.56000000000474         0.21760913810514615
29.58000000000474         0.21276678542084973
29.600000000004734        0.21130481501427273
29.62000000000473         0.21313471617261892
29.640000000004726        0.21835406244341213
29.66000000000472         0.22725370795265062
29.680000000004732        0.24033558177724323
29.700000000004717        0.25832920503108164
29.720000000004713        0.2821618356489784
29.740000000004706        0.3127316047767193
29.760000000004673        0.35007063375967395
29.780000000004645        0.39133730985495807
29.80000000000458         0.42908970917015576
29.82000000000454         0.4559138824489202
29.840000000004515        0.47111521123108296
29.86000000000449         0.4787056343635174
29.88000000000448         0.48239506530987375
29.90000000000447         0.4842259307309389
29.920000000004467        0.48513280694274347
29.940000000004463        0.48550363775058764
29.96000000000446         0.4854438280603202
29.98000000000446         0.4848472676170287
30.00000000000446         0.4833246765515423
30.020000000004455        0.47993960887267456
30.040000000004447        0.4726536591649581
30.060000000004464        0.45777314372854966
30.08000000000449         0.43121137189380404
30.10000000000453         0.3934896805947553
30.120000000004573        0.35236412069305967
30.140000000004605        0.31508405747778645
30.16000000000463         0.28458367658182687
30.180000000004625        0.26086850018998337
30.200000000004632        0.24303967693781386
30.220000000004628        0.23016629844179412
30.240000000004628        0.221518534095033
30.260000000004627        0.21659723342098489
30.280000000004627        0.2151169539433945
30.30000000000462         0.2169881374540148
30.320000000004622        0.22230921754963728
30.340000000004622        0.2313786747011678
30.360000000004614        0.24470782039786917
30.380000000004603        0.26304213204528015
30.4000000000046          0.28733152519631056
30.42000000000459         0.3184953646318417
30.440000000004563        0.35654061118556934
30.46000000000452         0.39850260544663096
30.48000000000447         0.43695709263966426
30.500000000004427        0.4642892309895556
30.52000000000441         0.4797852439289241
30.54000000000439         0.4875264933881383
30.56000000000438         0.49129143856308116
30.58000000000437         0.49316152232326493
30.60000000000437         0.49408941916417287
30.620000000004374        0.49447058006763134
30.640000000004367        0.4944126350408353
30.66000000000436         0.49380728431523413
30.680000000004352        0.4922581561051519
30.700000000004348        0.4888100636719043
30.72000000000435         0.4813742571007043
30.740000000004358        0.46615472475864306
30.760000000004386        0.43904218577786197
30.780000000004424        0.4007329097314147
30.800000000004466        0.35886472340811526
30.820000000004498        0.3209059007494267
30.84000000000451         0.28985098502275003
30.860000000004526        0.26570172891846805
30.880000000004518        0.24755530860903993
30.900000000004518        0.23445155537754506
30.920000000004514        0.22565020431080807
30.940000000004517        0.2206440501508795
30.960000000004516        0.2191427445270175
30.980000000004516        0.22105524383444738
31.000000000004505        0.22648347753423737
31.020000000004497        0.2357297777304828
31.0400000000045          0.24931584928798212
31.060000000004496        0.2680009935975642
31.08000000000449         0.2927524615528495
31.100000000004485        0.32450637125644033
31.120000000004453        0.3632702430966292
31.14000000000442         0.4060273527388958
31.16000000000437         0.44533591832875397
31.180000000004338        0.4731531822074055
31.20000000000429         0.48890089711175994
31.220000000004276        0.49679994271183125
31.240000000004283        0.500645878517672
31.260000000004272        0.5025576442784199
31.280000000004264        0.5035066278516805
31.300000000004253        0.5038966951567138
31.320000000004253        0.5038378011761107
31.340000000004245        0.5032201387549742
31.360000000004252        0.5016395815260396
31.38000000000425         0.49812123619177934
31.40000000000426         0.4905335057991333
31.420000000004265        0.47507144423890124
31.440000000004282        0.44748144384674526
31.460000000004325        0.4083336953480066
31.480000000004353        0.36560552363185395
31.500000000004373        0.32695918472459085
31.52000000000439         0.295356374491113
31.540000000004405        0.27077612175406157
31.56000000000441         0.252292379683626
31.580000000004418        0.23894626332383087
31.600000000004403        0.229983920903708
31.620000000004396        0.22488902319145668
31.640000000004395        0.22336586577792977
31.660000000004388        0.22532178048733564
31.680000000004377        0.23086073266235757
31.70000000000439         0.2402908677653221
31.720000000004383        0.25414380623727467
31.740000000004382        0.27319313446555593
31.76000000000439         0.2984054696179195
31.780000000004367        0.33074135763533036
31.800000000004346        0.37023210321961564
31.820000000004317        0.41389304494596435
31.84000000000426         0.4539692241275251
31.86000000000422         0.4823571460297592
31.88000000000419         0.4984480552601254
31.900000000004184        0.5065126972440188
31.920000000004162        0.5104434371125315
31.940000000004158        0.5123969339369897
31.960000000004165        0.5133660624236733
31.98000000000415         0.5137636598276317
32.00000000000416         0.5137031363684783
32.02000000000416         0.513072391130572
32.04000000000416         0.5114578716737879
32.06000000000415         0.5078640252017493
32.08000000000415         0.5001259918051376
32.10000000000416         0.48433296864740455
32.120000000004175        0.45618467930759665
32.140000000004214        0.4162719062501477
32.16000000000424         0.37272486033834873
32.18000000000427         0.33339205062959365
32.20000000000427         0.30113699055603615
32.22000000000429         0.27608764103621
32.240000000004294        0.25725086827596705
32.26000000000429         0.24364896535459238
32.28000000000429         0.23451382792664172
32.30000000000429         0.2293232531151495
32.32000000000429         0.2277758446291801
32.34000000000428         0.22977624923442455
32.36000000000428         0.23542960373438077
32.380000000004266        0.2450494723225024
32.40000000000428         0.2591764614404357
32.420000000004265        0.2785957130575219
32.440000000004254        0.30430448494712775
32.46000000000425         0.33726830566206684
32.480000000004225        0.3775240561569586
32.50000000000419         0.42203093040871
32.52000000000415         0.4628060838532845
32.540000000004106        0.4918578412132746
32.56000000000409         0.5083722877457888
32.58000000000408         0.5166365455813419
32.60000000000406         0.5206579487672147
32.62000000000406         0.5226549723647159
32.64000000000407         0.523644954092266
32.660000000004054        0.5240504518150845
32.68000000000406         0.5239872525481125
32.70000000000406         0.5233405884268855
32.720000000004056        0.521687365370388
32.74000000000405         0.5180106695818542
32.76000000000404         0.510076771219993
32.78000000000404         0.49386111273292554
32.80000000000407         0.4650514764159304
32.8200000000041          0.4244500626713445
32.84000000000414         0.38014046739615104
32.86000000000416         0.3399871118008774
32.880000000004166        0.3071365485599832
32.90000000000417         0.281591634526337
32.92000000000418         0.262387598244435
32.940000000004176        0.2485244052602542
32.96000000000417         0.23921617299748954
32.98000000000417         0.23392740824366576
33.000000000004164        0.23235059271110453
33.02000000000418         0.23439192419537608
33.04000000000416         0.24015808532907926
33.060000000004166        0.2499657460214958
33.08000000000416         0.2643696410114961
33.10000000000416         0.2841701380234679
33.120000000004154        0.31038785404697133
33.140000000004136        0.3440103243111037
33.16000000000412         0.38505050174183525
33.180000000004085        0.4303498145428153
33.20000000000404         0.47196928514594455
33.22000000000401         0.5016921355897329
33.24000000000398         0.5186288831806667
33.260000000003984        0.5271155753877709
33.28000000000396         0.5312447000358878
33.300000000003955        0.5332925872309364
33.32000000000395         0.5343060816506014
33.34000000000395         0.5347207274798721
33.36000000000395         0.5346559625984517
33.380000000003946        0.533993081173868
33.40000000000394         0.5322960981562211
33.42000000000394         0.5285147507646137
33.440000000003934        0.5203618291702091
33.460000000003944        0.5037246129146014
33.48000000000396         0.47424478337062126
33.500000000003986        0.43280559187725703
33.520000000004025        0.38764615159158483
33.54000000000405         0.34674211306592057
33.56000000000407         0.3132778867258543
33.58000000000406         0.2872525247422403
33.60000000000407         0.26768550300080224
33.62000000000406         0.2535584520319001
33.64000000000406         0.24407357404306504
33.66000000000406         0.23868594104571558
33.680000000004064        0.23708243548334548
33.70000000000407         0.23916593249032797
33.720000000004056        0.2450455007235856
33.74000000000405         0.2550485549983357
33.76000000000405         0.26973572689281866
33.78000000000404         0.28992260357818017
33.80000000000405         0.31662775554909106
33.820000000004036        0.35086287791763193
33.840000000004004        0.3926674218183156
33.86000000000396         0.4389253069001118
33.88000000000393         0.4814168437246501
33.90000000000389         0.5118377628681089
33.920000000003874        0.5292160422375148
33.940000000003856        0.5379356118996582
33.96000000000385         0.5421759762383553
33.98000000000384         0.5442807903133137
34.00000000000385         0.5453231365118835
34.02000000000384         0.5457510308365754
34.04000000000384         0.5456865258082544
34.06000000000383         0.5450074379135524
34.080000000003835        0.5432649301275649
34.100000000003824        0.5393784856340377
34.12000000000383         0.5309998213438302
34.14000000000384         0.513927658621734
34.160000000003855        0.4838789504540068
34.18000000000388         0.44145846101728925
34.200000000003925        0.3953433322316475
34.220000000003935        0.35368531182667123
34.240000000003946        0.3196198486058566
34.26000000000394         0.2931155700464922
34.28000000000395         0.2731786424903182
34.30000000000395         0.2587801829565189
34.32000000000395         0.24911172491422084
34.34000000000396         0.24361960696418355
34.36000000000394         0.2419872893586975
34.380000000003946        0.2441156282163746
34.40000000000395         0.2501163801038212
34.420000000003945        0.26032070274455393
34.44000000000394         0.27529955188631783
34.46000000000393         0.29588476030788985
34.480000000003926        0.32311251442205013
34.500000000003915        0.3580115730430202
34.52000000000389         0.4006249113410573
34.54000000000387         0.44780402955325305
34.560000000003825        0.4913186366192594
34.5800000000038          0.5224193624359849
34.60000000000378         0.5402041627399877
34.620000000003756        0.5491612257380706
34.640000000003745        0.5535294720846268
34.66000000000374         0.5556985616813401
34.68000000000374         0.5567755622690524
34.700000000003726        0.557221033026249
34.720000000003736        0.5571598652358137
34.74000000000373         0.5564664345583932
34.76000000000375         0.5546795076504467
34.78000000000374         0.5506902644182406
34.80000000000374         0.5421025931558814
34.82000000000372         0.5246592152991029
34.84000000000375         0.49383927763796875
34.86000000000377         0.45052279892286107
34.8800000000038          0.40348810663598145
34.90000000000383         0.3610137005551813
34.92000000000383         0.3262791739836085
34.94000000000385         0.2992510304979046
34.960000000003845        0.2789189335526907
34.98000000000384         0.26423626156850555
35.00000000000385         0.254378463686363
35.02000000000385         0.24877982952604877
35.040000000003836        0.24711731448951002
35.06000000000383         0.24929155601271794
35.08000000000383         0.25541663528249503
35.100000000003824        0.2658308669042072
35.120000000003834        0.28111574508111775
35.140000000003816        0.3021141826935035
35.16000000000381         0.32989482263817327
35.1800000000038          0.36549221225253586
35.20000000000378         0.4089565560211248
35.22000000000376         0.45709649556200577
35.24000000000372         0.5014323174954098
35.26000000000369         0.5333333784109131
35.28000000000365         0.551652841358062
35.30000000000365         0.5608768216869459
35.32000000000363         0.5653734786186526
35.340000000003634        0.5676083587450236
35.36000000000363         0.5687201902423159
35.380000000003626        0.569182293854184
35.400000000003615        0.5691235966422112
35.42000000000364         0.5684151786223572
35.44000000000362         0.5665839022775396
35.46000000000362         0.5624785475510189
35.480000000003606        0.5536399466339569
35.50000000000362         0.5357100860517533
35.52000000000364         0.5041228693932569
35.540000000003666        0.45986604491990957
35.560000000003676        0.41196922102063255
35.58000000000371         0.3686471564024158
35.60000000000373         0.3332036871468472
35.62000000000372         0.30562842038515226
35.64000000000373         0.2848874173688347
35.66000000000373         0.26991022747227855
35.68000000000372         0.2598560569088876
35.700000000003726        0.2541489769428446
35.72000000000373         0.2524589199046873
35.740000000003725        0.2546824875317519
35.76000000000372         0.26093660266999147
35.7800000000037          0.27156615273690415
35.80000000000371         0.2871630365685667
35.82000000000371         0.30859362932911605
35.84000000000372         0.3369503908274453
35.860000000003694        0.37329187621448956
35.88000000000369         0.4176460745248957
35.900000000003644        0.4666938601587906
35.9200000000036          0.5120206237790886
35.94000000000357         0.5447346277083784
35.96000000000354         0.5635828029648932
35.980000000003535        0.5730937351200813
36.00000000000353         0.5777346401247174
36.02000000000353         0.5800425961913055
36.04000000000354         0.5811932121107033
36.06000000000351         0.5816760729076553
36.080000000003515        0.5816249234191203
36.10000000000351         0.5809053197420071
36.12000000000352         0.5790297907051349
36.14000000000352         0.5748151583346983
36.160000000003514        0.5657117829542107
36.18000000000351         0.5472273579448191
36.20000000000352         0.5148067467113957
36.22000000000356         0.4696969626950937
36.24000000000358         0.42081645416103336
36.26000000000361         0.37662257186043036
36.280000000003625        0.34046512476463586
36.30000000000363         0.3123310397536935
36.32000000000362         0.2911682580756991
36.34000000000362         0.2758881036094742
36.360000000003616        0.26562831862656117
36.38000000000362         0.25980475901979344
36.40000000000361         0.25808276069630254
36.420000000003604        0.2603586132338137
36.44000000000361         0.2667516622865717
36.4600000000036          0.27761325605121867
36.4800000000036          0.293549680881796
36.5000000000036          0.3154359772418304
36.5200000000036          0.3443917669947838
36.540000000003594        0.381495064258792
36.56000000000356         0.42677810175865066
36.58000000000355         0.47687546913839257
36.60000000000349         0.5232375801791098
36.62000000000346         0.5567868392521635
36.64000000000344         0.5761722648953628
36.660000000003436        0.5859750757019704
36.680000000003425        0.5907635072841602
36.70000000000343         0.5931537589284912
36.72000000000342         0.594353163950866
36.74000000000341         0.5948658888410298
36.760000000003416        0.594828947439383
36.780000000003405        0.5941051702974995
36.8000000000034          0.5921890925587691
36.820000000003404        0.5878631425028573
36.8400000000034          0.578500945283372
36.8600000000034          0.5595026682164621
36.88000000000343         0.5263849397152912
36.90000000000345         0.48012398226797226
36.920000000003476        0.4301244004254756
36.94000000000349         0.38503486901446077
36.960000000003504        0.3481587757796291
36.980000000003514        0.31945157109008304
37.00000000000351         0.29784775725009033
37.0200000000035          0.28224350041352253
37.0400000000035          0.27176909415381817
37.0600000000035          0.2658273563576628
37.080000000003494        0.2640759832985722
37.10000000000349         0.2664091869650439
37.120000000003486        0.27294688938753114
37.14000000000349         0.2840511656117163
37.160000000003485        0.30033941219779836
37.18000000000348         0.3227075412126697
37.20000000000348         0.35227148462762253