% Model:              ModelBHUp.mph
% Version:            COMSOL 5.6.0.280
% Date:               Oct 20 2021, 20:18
% Dimension:          1
% Nodes:              963
% Expressions:        1
% Description:        线图
% cln1x                   Height
47.80000000000001         0.26785008131931853
47.81999999999392         0.28645597597378325
47.839999999993935        0.30821137766803314
47.859999999993946        0.3338782789212131
47.87999999999395         0.364423576443819
47.89999999999396         0.40103771852720266
47.919999999993976        0.44506232270154533
47.939999999994015        0.4976057555197856
47.95999999999407         0.5583001334029992
47.97999999999414         0.6226945471455038
47.99999999999419         0.6806412830841493
48.019999999994226        0.7217074819161271
48.03999999999425         0.7442053351317732
48.05999999999426         0.753892401860679
48.079999999994264        0.7568661467596003
48.09999999999426         0.7563586025918335
48.11999999999427         0.753131989798918
48.139999999994274        0.7461381369586997
48.15999999999425         0.732239145300471
48.17999999999424         0.705946309893038
48.199999999994176        0.6625017257006077
48.21999999999412         0.6048496678512478
48.2399999999941          0.544287094368956
48.25999999999408         0.4906192076796189
48.27999999999408         0.44741237909266107
48.29999999999408         0.41435781004855904
48.31999999999409         0.39000650144092436
48.339999999994106        0.3729257147160062
48.359999999994095        0.36201191606988153
48.3799999999941          0.35651960154474066
48.3999999999941          0.3560393856491415
48.419999999994126        0.36046493436351523
48.43999999999412         0.3699793575351726
48.459999999994125        0.3850670528812555
48.479999999994156        0.4065347106730398
48.49999999999415         0.4355336281311053
48.51999999999419         0.4735084184392741
48.53999999999424         0.5218463715757389
48.55999999999426         0.5806455285747593
48.57999999999432         0.6458885333594927
48.59999999999438         0.7071223412655225
48.619999999994405        0.7524751417749682
48.639999999994444        0.7788375806802894
48.65999999999445         0.7913742131267483
48.67999999999446         0.796130724212299
48.69999999999446         0.7965845925877958
48.719999999994464        0.7937554839472506
48.73999999999446         0.7866515671323298
48.759999999994456        0.7718894130370878
48.77999999999442         0.7435661886251109
48.799999999994384        0.69669243489462
48.81999999999433         0.634515890451938
48.83999999999429         0.5689171845212048
48.85999999999428         0.5102047423470495
48.87999999999427         0.4622385335163897
48.89999999999426         0.42482946753379847
48.919999999994275        0.396550994033498
48.939999999994285        0.37594402913148084
48.959999999994295        0.36185790706415855
48.979999999994305        0.3534983841660322
48.9999999999943          0.35039961525196295
49.01999999999431         0.35239769363055695
49.03999999999432         0.3596198759331006
49.05999999999431         0.3724923379446382
49.079999999994335        0.3917632253525066
49.09999999999436         0.4185215607868154
49.11999999999437         0.4541475950396647
49.13999999999441         0.49997365625657814
49.15999999999446         0.5560824642219598
49.17999999999451         0.6185522274972824
49.19999999999456         0.6771972332207236
49.21999999999459         0.7206325763567738
49.239999999994616        0.745718464916409
49.25999999999462         0.7577522170923158
49.279999999994644        0.7624567685948312
49.29999999999463         0.7630938489725546
49.319999999994636        0.7606183373514251
49.339999999994625        0.7540882327424135
49.35999999999462         0.7402850495880113
49.379999999994595        0.7135287337776668
49.39999999999456         0.6688801011586888
49.41999999999451         0.6092683276603219
49.43999999999448         0.5461392649136947
49.45999999999446         0.48948210886234295
49.47999999999447         0.4432579856071861
49.499999999994465        0.4071866132592453
49.51999999999448         0.37990439197035086
49.53999999999448         0.36001608648433897
49.559999999994496        0.34641830077893876
49.5799999999945          0.33834644600194735
49.5999999999945          0.3353520013425924
49.61999999999452         0.33727796808893584
49.6399999999945          0.344248061198423
49.659999999994525        0.35667520171036743
49.67999999999452         0.37528447645080765
49.69999999999454         0.4011326122393033
49.71999999999458         0.4355588852698267
49.739999999994595        0.4798565462006345
49.75999999999464         0.5341027400910555
49.77999999999469         0.5944655202225875
49.799999999994746        0.651149575679327
49.81999999999478         0.692762291039063
49.8399999999948          0.716822959959414
49.859999999994805        0.7284054210891103
49.879999999994816        0.7330248214194365
49.89999999999482         0.733771948849154
49.919999999994815        0.7315561153351725
49.93999999999483         0.7254831906144206
49.959999999994814        0.7124831918257093
49.979999999994796        0.6870820262882344
49.999999999994756        0.6443949340756858
50.01999999999468         0.5870602830759291
50.03999999999467         0.526092789153663
50.05999999999465         0.4714715348825595
50.07999999999465         0.4268278032851353
50.09999999999467         0.39199710160433265
50.119999999994654        0.36566290816616787
50.13999999999467         0.3464760040474523
50.15999999999467         0.333369680473463
50.17999999999467         0.3256053150335755
50.19999999999468         0.32275094959256745
50.21999999999469         0.32465612809690747
50.23999999999471         0.3314427186572282
50.259999999994704        0.3435132124839456
50.27999999999471         0.3615732395724706
50.29999999999474         0.38665007743073904
50.31999999999475         0.4200463171737212
50.339999999994795        0.4630214614339884
50.35999999999483         0.5155531139772024
50.37999999999487         0.5741570132732066
50.399999999994925        0.629024713256818
50.419999999994964        0.6691545822412063
50.43999999999498         0.6923068206993839
50.45999999999499         0.7034774907311601
50.479999999995           0.7079896667550395
50.499999999995           0.7088016867291502
50.51999999999501         0.7067821066959711
50.53999999999502         0.7010766038008374
50.55999999999501         0.6887545165921151
50.57999999999499         0.6645646618944085
50.59999999999494         0.6235837183710948
50.6199999999949          0.5680921970861548
50.63999999999486         0.5090463194098351
50.65999999999484         0.45609640175535165
50.67999999999485         0.4128149905465018
50.69999999999484         0.3790543691469125
50.719999999994855        0.3535377243665352
50.739999999994865        0.3349550420613165
50.75999999999488         0.3222706100341293
50.77999999999488         0.31476768100826064
50.79999999999489         0.3120278463010495
50.819999999994884        0.31390672334608627
50.839999999994895        0.3205242768233205
50.85999999999491         0.33227301089069566
50.87999999999491         0.3498419943590251
50.89999999999493         0.3742237848380499
50.91999999999494         0.40668448890220193
50.939999999994974        0.4484464378087858
50.959999999995006        0.4996059388653267
50.97999999999507         0.5565795168055808
50.99999999999511         0.6098238722882467
51.01999999999515         0.6486427667569873
51.03999999999516         0.670988615449894
51.05999999999519         0.6817876443727956
51.0799999999952          0.6861949939870786
51.09999999999519         0.6870556772014383
51.1199999999952          0.6851990631317227
51.1399999999952          0.6798086226773714
51.15999999999519         0.668067109656884
51.17999999999517         0.6448695491700472
51.199999999995136        0.6053481307298298
51.21999999999509         0.551574720387988
51.239999999995064        0.4942088156110006
51.25999999999503         0.44272251540159857
51.279999999995034        0.40063723736058265
51.29999999999504         0.3678190417806318
51.31999999999504         0.34302515682450074
51.339999999995044        0.3249795823296501
51.359999999995054        0.3126735101994901
51.379999999995086        0.30540913652766055
51.39999999999505         0.3027793921373741
51.41999999999508         0.3046447807523211
51.43999999999509         0.31112504733997015
51.45999999999509         0.3226004118815593
51.4799999999951          0.3397422582965466
51.49999999999511         0.3635264236019144
51.51999999999514         0.39518917061426206
51.53999999999517         0.43592736155654216
51.559999999995206        0.48583348995899706
51.57999999999525         0.5413848908335818
51.599999999995305        0.5932156652551028
51.61999999999534         0.6308961615282316
51.639999999995354        0.652543451504852
51.659999999995364        0.6630257240249492
51.67999999999536         0.6673409912555411
51.6999999999954          0.6682385240367106
51.71999999999538         0.6665198959953401
51.73999999999538         0.6613929903358647
51.75999999999538         0.6501328057984889
51.779999999995354        0.6277685537701931
51.79999999999533         0.589485829773153
51.81999999999529         0.5371943486765913
51.83999999999524         0.48129472088652087
51.859999999995225        0.431091073914537
51.87999999999523         0.3900537565855342
51.899999999995245        0.3580596651084264
51.919999999995234        0.33389588544696625
51.939999999995244        0.3163165261301985
51.959999999995254        0.30433735748452295
51.97999999999525         0.2972773963283924
51.99999999999528         0.2947428386702924
52.01999999999528         0.2965967111600752
52.03999999999528         0.30295460638326976
52.059999999995284        0.31419148630361
52.079999999995295        0.33096321051499894
52.09999999999531         0.3542255356172409
52.11999999999533         0.38519012099959704
52.139999999995354        0.425030768678381
52.15999999999539         0.473836281337705
52.179999999995445        0.5281375327756423
52.199999999995484        0.5785994048133586
52.219999999995515        0.6153215893995126
52.23999999999553         0.6364193026004172
52.25999999999553         0.6466192799867166
52.279999999995546        0.6508391557409603
52.299999999995556        0.6517542428989739
52.31999999999555         0.6501391879673896
52.33999999999555         0.6452271799376662
52.35999999999555         0.6343749121550107
52.379999999995526        0.6127319235892756
52.3999999999955          0.5755325206375043
52.41999999999546         0.5245497707408214
52.43999999999543         0.4700167502593076
52.45999999999542         0.4208592049659599
52.47999999999542         0.3807468413683901
52.499999999995424        0.34948085490957587
52.51999999999545         0.32587389116800763
52.53999999999544         0.3087036693571551
52.55999999999545         0.2970119300804813
52.57999999999546         0.290130904106149
52.59999999999547         0.28767298599232477
52.61999999999547         0.2895059700810105
52.639999999995474        0.29574420079241887
52.65999999999549         0.30675633868902713
52.67999999999549         0.32318659635644315
52.6999999999955          0.34597217656083434
52.71999999999552         0.3763014778323327
52.73999999999555         0.4153846574230992
52.759999999995586        0.463217511239673
52.779999999995624        0.5163089134455332
52.79999999999568         0.5656483620848468
52.81999999999571         0.6014769282765686
52.83999999999572         0.6220170593995075
52.859999999995736        0.6319445291361099
52.879999999995746        0.6360664070491033
52.89999999999575         0.6369859093896839
52.91999999999576         0.6354567219145124
52.939999999995756        0.6307360430534498
52.95999999999575         0.6202408068713687
52.97999999999573         0.5992415469781689
52.999999999995694        0.5630132278913081
53.019999999995655        0.5131884861431352
53.03999999999562         0.45973206545625284
53.059999999995604        0.41166825478959673
53.07999999999561         0.37240225941440375
53.09999999999561         0.3417672113577352
53.11999999999562         0.31864875336933657
53.139999999995624        0.30184340539557925
53.159999999995634        0.29040378325826294
53.17999999999564         0.28367656752997905
53.19999999999564         0.2812814193578488
53.21999999999566         0.28308890722290775
53.23999999999567         0.28921163139844114
53.25999999999567         0.3000120524392946
53.279999999995695        0.31612246001351874
53.29999999999569         0.3384676600631614
53.3199999999957          0.3682242186535022
53.33999999999573         0.4065305127292012
53.359999999995765        0.4534408797146702
53.3799999999958          0.5054863699207616
53.39999999999588         0.5537867840912096
53.41999999999589         0.5887741218069935
53.4399999999959          0.6087859932608182
53.45999999999591         0.6184532739994337
53.47999999999591         0.6224785170007582
53.49999999999593         0.6233961325448907
53.51999999999593         0.621938175354098
53.539999999995935        0.6173773013901358
53.55999999999591         0.6072054629504215
53.5799999999959          0.5867795533026701
53.59999999999587         0.5514264174819535
53.619999999995855        0.5026707036921428
53.63999999999582         0.45036631098690744
53.65999999999582         0.40321837498499974
53.67999999999581         0.3646658656514698
53.69999999999582         0.33463553534285273
53.71999999999583         0.31197826617943314
53.739999999995824        0.2955126682039028
53.759999999995834        0.28430851151706776
53.77999999999584         0.277724258136529
53.79999999999585         0.2753871454526673
53.819999999995844        0.277171142488796
53.839999999995854        0.28318595107662203
53.859999999995864        0.29379014335966663
53.879999999995874        0.3096048428319396
53.8999999999959          0.33153790555954366
53.9199999999959          0.36074530067903826
53.93999999999593         0.39834825326608686
53.95999999999598         0.44439751832582547
53.979999999996004        0.4954665143590114
53.99999999999606         0.5427992724122829
54.019999999996095        0.5770068703843377
54.0399999999961          0.5965310675476856
54.05999999999611         0.6059579947312175
54.07999999999612         0.6098922500534075
54.09999999999613         0.6108036631821049
54.11999999999615         0.6094046885860789
54.139999999996135        0.6049871899916082
54.15999999999614         0.5950964713199949
54.179999999996106        0.5751380232999739
54.19999999999609         0.5405533390085164
54.219999999996034        0.49291441798561514
54.239999999996           0.4415969067078582
54.25999999999599         0.3953205915601874
54.27999999999598         0.3574808774008919
54.29999999999599         0.3280099333862568
54.319999999996           0.3057781717620821
54.339999999996           0.2896244037914265
54.35999999999601         0.27863516753416573
54.379999999996016        0.2721819639713136
54.39999999999603         0.26989673047800694
54.41999999999606         0.27165654870195594
54.43999999999603         0.2775701853804084
54.45999999999606         0.2879875539523539
54.47999999999606         0.3035212184992842
54.499999999996064        0.3250647324166606
54.51999999999612         0.3537553605110224
54.53999999999612         0.3906962987820142
54.55999999999616         0.43593482681947693
54.57999999999621         0.48608396312971713
54.59999999999622         0.5325041274465268
54.61999999999626         0.5659759664613148
54.63999999999627         0.5850412485476733
54.65999999999628         0.5942446494132225
54.67999999999629         0.5980969629120668
54.69999999999629         0.5990025440594648
54.7199999999963          0.5976548250160457
54.7399999999963          0.5933657426615346
54.759999999996296        0.5837414743244435
54.77999999999628         0.5642895856776368
54.79999999999625         0.5304818900202072
54.819999999996234        0.48377854495822376
54.83999999999621         0.4333863766764304
54.859999999996184        0.3879193253060923
54.87999999999619         0.35074123132657975
54.8999999999962          0.32179064266975266
54.9199999999962          0.2999560245572141
54.93999999999622         0.2840961663006153
54.959999999996214        0.2733069562646553
54.979999999996224        0.2669713902892811
54.99999999999623         0.26473045954571367
55.01999999999623         0.2664631601851675
55.039999999996255        0.27227762445694775
55.05999999999625         0.28251819205811424
55.07999999999626         0.2977864857089457
55.09999999999627         0.3189610965482305
55.11999999999629         0.34716229308560687
55.13999999999631         0.38347744123760263
55.15999999999634         0.42794971875666243
55.17999999999637         0.4772255941489414
55.199999999996436        0.5227704448665076
55.21999999999643         0.5555262180864812
55.23999999999645         0.5741450430457414
55.25999999999646         0.583103984942248
55.27999999999647         0.5868637500237174
55.299999999996494        0.5877565057589178
55.31999999999649         0.5864528481142487
55.33999999999649         0.5822821736458024
55.359999999996475        0.572907380728714
55.379999999996464        0.5539226504612227
55.39999999999645         0.5208388594129872
55.41999999999641         0.47502215122565855
55.43999999999639         0.42551872681679964
55.459999999996384        0.38083364303582506
55.47999999999638         0.3442748570295198
55.499999999996376        0.3158423676049717
55.519999999996394        0.29439455894642663
55.5399999999964          0.27881309315107183
55.55999999999642         0.26821652552994424
55.57999999999641         0.2619964927985062
55.59999999999641         0.2597989539890212
55.61999999999642         0.2615040353498533
55.639999999996434        0.267218155301635
55.65999999999644         0.27728117147530684
55.67999999999644         0.2922860139588973
55.69999999999646         0.3130974899560269
55.719999999996475        0.34081745225001997
55.73999999999649         0.3765155127747775
55.759999999996545        0.420231989752791
55.77999999999657         0.4686546675987457
55.7999999999966          0.5133650937242157
55.81999999999663         0.545532614256156
55.839999999996635        0.563671741402763
55.85999999999665         0.5724297311595211
55.879999999996656        0.5761102922034184
55.899999999996666        0.5769896114969066
55.91999999999668         0.575721878877536
55.93999999999667         0.5716558196428613
55.959999999996676        0.56251232171884
55.97999999999666         0.5439692260487218
55.999999999996646        0.5115756088720863
56.01999999999662         0.4666097480824679
56.0399999999966          0.4178841853273625
56.05999999999658         0.3739752346304525
56.07999999999657         0.33808627471464087
56.09999999999658         0.31013753751844064
56.11999999999659         0.2890577139103573
56.139999999996576        0.27374566387362514
56.159999999996586        0.263334046699026
56.17999999999661         0.2572249975147899
56.1999999999966          0.2550710933885124
56.21999999999661         0.25675429890731205
56.23999999999662         0.26237832209507295
56.25999999999663         0.27227665126217826
56.27999999999663         0.28703349489791324
56.29999999999664         0.30750217666270174
56.31999999999667         0.3347696857169575
56.339999999996685        0.3698372745417247
56.3599999999967          0.412824337334992
56.379999999996755        0.46051829030687025
56.39999999999678         0.5045376159460568
56.41999999999681         0.5359177379444465
56.43999999999684         0.5536359623016253
56.45999999999684         0.5621814231500473
56.47999999999685         0.565774022251195
56.49999999999685         0.5666341666981957
56.51999999999686         0.5653994627103652
56.53999999999686         0.5614355278465538
56.55999999999686         0.5525155208110613
56.57999999999686         0.534464686076887
56.599999999996825        0.5027850575014435
56.61999999999679         0.4585187029600739
56.63999999999679         0.4106167751581543
56.65999999999677         0.36743318479598763
56.67999999999676         0.3321379610379815
56.699999999996784        0.3046554003404272
56.71999999999678         0.2839301596224087
56.73999999999679         0.2688775791971391
56.75999999999679         0.2586436246878689
56.77999999999679         0.2526398670978552
56.7999999999968          0.2505247765332366
56.81999999999682         0.2521832399756716
56.83999999999682         0.2577182819218072
56.85999999999683         0.2674579375003692
56.87999999999683         0.2819761165399597
56.899999999996844        0.3021118958466013
56.91999999999687         0.32891673664096754
56.939999999996886        0.36343809292396434
56.9599999999969          0.4057320625900932
56.97999999999695         0.4526398185064395
56.99999999999697         0.4958804168662941
57.01999999999699         0.5266363756223601
57.039999999997           0.5439650788217382
57.059999999997004        0.5523148858187458
57.07999999999702         0.555828159040622
57.09999999999704         0.556672902884828
57.11999999999704         0.5554672290265179
57.139999999997045        0.5515956654495132
57.15999999999704         0.5428962121042714
57.179999999997015        0.5252391476031468
57.199999999997004        0.49419474201943153
57.21999999999697         0.4507172887165967
57.23999999999696         0.4036106799614345
57.25999999999694         0.3611282326803681
57.27999999999695         0.3264070237145541
57.29999999999696         0.29937515487975785
57.31999999999697         0.27899274904601845
57.33999999999697         0.26419111554742275
57.35999999999698         0.25412908902985876
57.37999999999698         0.24822728200305644
57.39999999999699         0.24614951021702688
57.41999999999698         0.24778261744435143
57.439999999997006        0.25322859089597144
57.45999999999703         0.2628136290209358
57.47999999999702         0.27709850399978964
57.49999999999702         0.29690811846307924
57.51999999999705         0.3232904936986022
57.53999999999708         0.35726441994454056
57.559999999997096        0.3988868441496357
57.57999999999713         0.44503141551184255
57.599999999997166        0.48751486621251783
57.6199999999972          0.5176622401071685
57.639999999997194        0.5346087781002884
57.65999999999721         0.5427670432893098
57.67999999999722         0.5461951472327369
57.69999999999723         0.5470179825716217
57.71999999999725         0.5458411119671266
57.739999999997245        0.542061369486792
57.75999999999724         0.533564556498802
57.77999999999724         0.5162962243649573
57.79999999999718         0.48586741275564055
57.81999999999718         0.4431549339812697
57.83999999999716         0.3968196716610261
57.85999999999714         0.35501729419363615
57.87999999999714         0.32085289543363243
57.89999999999715         0.29425825010343787
57.91999999999715         0.27420846435656077
57.939999999997156        0.25965032264385235
57.959999999997166        0.2497551305124951
57.979999999997176        0.24395225585171673
57.99999999999717         0.24191066007095305
58.01999999999719         0.24351973165532687
58.039999999997185        0.24887911658471548
58.05999999999719         0.25830812438910766
58.079999999997234        0.27236366237146803
58.09999999999722         0.2918573976849153
58.11999999999724         0.3178222996516513
58.13999999999725         0.35126140670099015
58.15999999999728         0.39222776228963374
58.17999999999732         0.4376272963044736
58.199999999997345        0.4793739883438329
58.21999999999736         0.5088655307809207
58.239999999997394        0.5255035556540892
58.25999999999738         0.5334810629255363
58.279999999997386        0.5368284748945189
58.29999999999739         0.5376316588604567
58.319999999997385        0.5364818865553284
58.33999999999739         0.5327897598787497
58.35999999999738         0.5244877259676924
58.37999999999737         0.5075942535284041
58.39999999999737         0.47775977403677505
58.41999999999737         0.4357856025369006
58.43999999999735         0.3901996629749606
58.45999999999734         0.34905912830087216
58.47999999999734         0.31544250127454887
58.49999999999734         0.28927932791426914
58.51999999999736         0.26955726398458085
58.53999999999736         0.25523678893973734
58.559999999997366        0.24550626273103152
58.579999999997376        0.23980183580113412
58.599999999997394        0.23779742276236057
58.61999999999739         0.23938340939400432
58.63999999999739         0.24465880523920855
58.65999999999741         0.25393811992402965
58.67999999999741         0.26777025217240985
58.69999999999743         0.2869557736487726
58.71999999999744         0.31251319073607026
58.739999999997444        0.3454313716801163
58.75999999999747         0.3858302882635433
58.7799999999975          0.4304285050548956
58.79999999999753         0.4713495657729209
58.81999999999754         0.5003973974537539
58.83999999999756         0.5166847593925395
58.859999999997555        0.524485502727839
58.87999999999756         0.5277592580183644
58.899999999997576        0.5285459249328884
58.919999999997565        0.5274221125858374
58.93999999999756         0.5238121766319741
58.95999999999756         0.5156895778275188
58.97999999999755         0.49913106967241855
58.99999999999755         0.46983551731009
59.019999999997545        0.42856521029655975
59.03999999999753         0.3837208860817946
59.05999999999752         0.34324809789121474
59.07999999999756         0.31017458598102676
59.09999999999754         0.28443997883711025
59.119999999997546        0.26503646266871334
59.13999999999755         0.25095439129167324
59.15999999999756         0.24138712240423402
59.17999999999756         0.23578050188233904
59.19999999999756         0.2338136120338195
59.2199999999976          0.23537870582488357
59.239999999997586        0.24057343406410672
59.25999999999759         0.24970765353931554
59.27999999999759         0.2633220828870209
59.29999999999759         0.2822094694033609
59.31999999999761         0.30738176423051145
59.33999999999763         0.3398181263105979
59.35999999999766         0.37953818558566954
59.379999999997686        0.4234288243973131
59.39999999999771         0.46366464851515315
59.419999999997735        0.49218000023106834
59.43999999999776         0.5081415004606412
59.45999999999777         0.5157776998584179
59.47999999999778         0.5189804375602339
59.499999999997776        0.5197479662531639
59.5199999999978          0.5186443085805672
59.539999999997804        0.5151068436185815
59.559999999997764        0.5071544807995932
59.57999999999778         0.4909441276384593
59.59999999999777         0.46221887165383874
59.61999999999775         0.42166699368879607
59.63999999999773         0.3776087489964024
59.659999999997716        0.3377429822353783
59.679999999997726        0.3051503645948244
59.69999999999772         0.2797981859370681
59.719999999997725        0.26069998318108983
59.73999999999774         0.24684177986626038
59.75999999999774         0.23742844035410457
59.77999999999775         0.2319138042810256
59.79999999999776         0.22998152323220153
59.81999999999775         0.23152526354099096
59.839999999997765        0.23664098005891057
59.859999999997775        0.24563168039320507
59.87999999999778         0.25903426303969584
59.899999999997796        0.27762693659728693
59.91999999999781         0.3024050589894993
59.93999999999783         0.3343346068861597
59.95999999999784         0.3734341409227965
59.97999999999788         0.4166327967878906
59.999999999997904        0.45621570971621445
60.01999999999792         0.4842443656499271
60.039999999997946        0.4999192515782443
60.05999999999793         0.5074142171504805
60.07999999999793         0.5105571833222498
60.09999999999792         0.5113102424264473
60.119999999997944        0.5102274541566486
60.139999999997926        0.5067575975942398
60.15999999999794         0.49895617904646195
60.179999999997946        0.48298123339962673
60.19999999999793         0.4547012144608336
60.21999999999793         0.41493001411759395
60.23999999999791         0.37157209673113345
60.25999999999791         0.3323344474241698
60.27999999999792         0.3002562472446643
60.29999999999792         0.2753064557284705
60.31999999999793         0.2565134894676634
60.33999999999792         0.24287867611395783
60.359999999997946        0.23361901284533063
60.37999999999793         0.22819677972920974
60.399999999997945        0.22630054116990517
60.41999999999794         0.227825088956575
60.439999999997966        0.23286569832945828
60.45999999999796         0.2417229897850232
60.479999999997965        0.2549222587004274
60.499999999998           0.2732315238841188
60.51999999999799         0.2976313839652021
60.53999999999803         0.3290736486382637
60.55999999999807         0.3675761200097515
60.57999999999807         0.41010923868132515
60.5999999999981          0.44918236962338826
60.61999999999811         0.4766928808529177
60.63999999999812         0.4920327232604104
60.65999999999814         0.49939395127811
60.679999999998124        0.5024804375224186
60.699999999998134        0.5032202218846598
60.719999999998144        0.5021592503800902
60.73999999999815         0.4987540480523158
60.75999999999815         0.4910818740405482
60.77999999999814         0.47538904604705295
60.79999999999813         0.44757770258682655
60.81999999999812         0.4084339720189253
60.83999999999812         0.36576150163807414
60.859999999998095        0.3271339578079693
60.87999999999811         0.29555560390379726
60.89999999999811         0.2709965956547392
60.91999999999812         0.25249989692520197
60.93999999999811         0.2390834978095658