% Model:              ModelBHUp.mph
% Version:            COMSOL 5.6.0.280
% Date:               Oct 20 2021, 19:03
% Dimension:          1
% Nodes:              998
% Expressions:        1
% Description:        线图
% cln2x                   Height
23.400000000000006        0.11469897351371951
23.40285719551799         0.11548206594020682
23.448370252625374        0.12737088072080976
23.501646606006634        0.1456905945540607
23.54815567659868         0.16721319344613333
23.57881859341094         0.18531931998793646
23.625691863876053        0.2229373846414098
23.638926316094235        0.2359043770308142
23.68579031036268         0.29879494897492653
23.687036827590873        0.29978234289946254
23.687443778350016        0.30033057115680484
23.728449215820042        0.38122507188271787
23.73700457535107         0.4036504551417461
23.757300457893425        0.4613213370417067
23.762405982309843        0.4773174392349574
23.765547287387722        0.48476626118765703
23.782595591452292        0.5398664293732112
23.800000000000004        0.5875497203446118
23.82000000000065         0.6278785970446653
23.840000000001123        0.6524850672382123
23.86000000000139         0.6646908220774576
23.8800000000015          0.6699290163790539
23.900000000001548        0.6713935313949624
23.920000000001547        0.6700234210605814
23.940000000001554        0.6649364647176044
23.960000000001564        0.6530177978705697
23.98000000000157         0.6288430373429891
24.00000000000158         0.5884366286189074
24.020000000001605        0.534433432951907
24.040000000001616        0.4750329843620409
24.060000000001622        0.419727133989068
24.08000000000163         0.37283224587276576
24.10000000000163         0.3344208111799503
24.12000000000162         0.3032228219221133
24.140000000001635        0.2778599633041885
24.16000000000163         0.2571638078747217
24.180000000001623        0.24020955919850484
24.200000000001634        0.22628123954384896
24.220000000001633        0.21482797712680538
24.240000000001626        0.20542600541870432
24.26000000000164         0.19774877894509915
24.280000000001635        0.19154440367956294
24.30000000000163         0.1866194684127166
24.320000000001635        0.18282596597963074
24.34000000000164         0.18005407541849533
24.36000000000164         0.17822444346820696
24.380000000001633        0.17728405666667835
24.40000000000164         0.17720330655743433
24.42000000000164         0.17797436350284923
24.44000000000164         0.17961073819332482
24.460000000001635        0.18214796411483625
24.480000000001642        0.18564544179609116
24.50000000000164         0.19018960865106718
24.520000000001648        0.19589869511673116
24.540000000001644        0.20292949531831778
24.560000000001647        0.21148677961934376
24.580000000001647        0.2218374443347604
24.600000000001653        0.23432332195412262
24.620000000001642        0.24939068190927743
24.640000000001645        0.2676168912344878
24.660000000001645        0.2897503260922549
24.680000000001648        0.3167555024566747
24.700000000001644        0.3498475978837627
24.720000000001637        0.39045368821697524
24.74000000000163         0.4398867536508934
24.760000000001614        0.49811253394207033
24.7800000000016          0.5608105126020178
24.800000000001578        0.6179138467438499
24.820000000001567        0.6608376930327234
24.840000000001556        0.6867339738137539
24.860000000001573        0.6996296425386132
24.880000000001562        0.7051983835122875
24.900000000001572        0.7067786601361925
24.92000000000156         0.7053402913345043
24.94000000000156         0.6999155994652189
24.960000000001575        0.6871716752611329
24.980000000001578        0.6614196455509926
25.0000000000016          0.6186324124360255
25.020000000001613        0.5616555480286959
25.040000000001626        0.49908222331941743
25.060000000001637        0.44099030164705466
25.080000000001636        0.391706116362999
25.100000000001636        0.3512641310628417
25.120000000001646        0.3183489283058912
25.140000000001645        0.29153132951940447
25.16000000000164         0.26959922102741196
25.18000000000164         0.25158516999342617
25.20000000000164         0.23673938501466896
25.220000000001644        0.22448443466417273
25.240000000001647        0.21437565507761283
25.260000000001654        0.2060701378442668
25.280000000001642        0.1993032688732576
25.300000000001653        0.19387117663615905
25.32000000000165         0.18961798507784042
25.340000000001652        0.18642669011395321
25.36000000000166         0.1842124502639939
25.38000000000166         0.18291780974363664
25.400000000001654        0.18250956028014917
25.420000000001657        0.18297691202642113
25.440000000001653        0.1843310471358195
25.46000000000166         0.18660557435433914
25.480000000001652        0.18985831560197508
25.50000000000166         0.19417446505761385
25.52000000000165         0.19967138684426447
25.540000000001662        0.20650541061163283
25.560000000001658        0.21488124167610445
25.58000000000166         0.22506481661586197
25.60000000000166         0.23740069709867184
25.62000000000167         0.25233554393075996
25.640000000001667        0.27044925620755766
25.660000000001663        0.29249465254577867
25.68000000000166         0.31944396996710694
25.700000000001662        0.35251337700353874
25.720000000001654        0.3931422122345098
25.740000000001647        0.44265500527894797
25.76000000000163         0.5010277943925886
25.780000000001607        0.5639384039373266
25.80000000000159         0.6212897675575414
25.82000000000158         0.6644419547811271
25.840000000001577        0.6905124497430245
25.860000000001573        0.7035174464587552
25.880000000001566        0.7091604040786705
25.90000000000158         0.7107893128020446
25.920000000001576        0.7093757928617628
25.940000000001575        0.7039359099033425
25.96000000000159         0.691122674101075
25.980000000001596        0.66521455430178
26.000000000001613        0.6221790477539345
26.020000000001637        0.564886060284554
26.040000000001637        0.5019827976221403
26.060000000001647        0.4435888253759315
26.08000000000165         0.39404466857507364
26.100000000001653        0.3533845845235981
26.120000000001653        0.32028844997788497
26.140000000001656        0.2933214933501945
26.160000000001663        0.2712623400408312
26.18000000000166         0.25314151364546666
26.20000000000166         0.23820646779763308
26.22000000000165         0.22587562614169987
26.240000000001658        0.215704593848137
26.260000000001654        0.20734590426671515
26.280000000001657        0.2005326895303966
26.30000000000166         0.19505968766859832
26.32000000000167         0.1907702565248045
26.34000000000166         0.1875468315763273
26.36000000000167         0.18530409094765043
26.380000000001676        0.18398419505238656
26.400000000001675        0.18355365885941796
26.420000000001664        0.1840015392475779
26.440000000001668        0.18533877192484005
26.460000000001667        0.18759877538396239
26.480000000001677        0.19083934042558914
26.500000000001673        0.19514554606733447
26.52000000000167         0.20063536454564596
26.54000000000167         0.20746529558256918
26.560000000001676        0.21584049573910472
26.58000000000168         0.22602753317183516
26.600000000001675        0.23837190741677855
26.620000000001678        0.253321607352415
26.640000000001685        0.27145828016346235
26.660000000001684        0.2935369361637383
26.680000000001673        0.32053173730562257
26.70000000000167         0.3536724994500121
26.720000000001658        0.3944086590043143
26.74000000000165         0.4440768093234651
26.76000000000164         0.5025176376584404
26.78000000000162         0.5655971280842879
26.800000000001603        0.6231248255951132
26.820000000001592        0.6664305080002
26.840000000001584        0.6926143063538681
26.860000000001587        0.7056910783691137
26.880000000001584        0.7113769036211369
26.900000000001583        0.7130320925043335
26.920000000001586        0.711633268477254
26.94000000000158         0.7061979571621122
26.960000000001585        0.6933353068431946
26.9800000000016          0.6672706535578113
27.000000000001616        0.624067466141454
27.02000000000163         0.5667662773581296
27.040000000001655        0.5036805760490738
27.060000000001654        0.4451367172208787
27.08000000000166         0.3954651908369401
27.100000000001664        0.35470013667478223
27.120000000001678        0.32151960535232216
27.140000000001667        0.29448584858278115
27.160000000001663        0.2723737647435319
27.180000000001677        0.2542104054878815
27.20000000000167         0.23924097724387666
27.220000000001665        0.22688334838866636
27.240000000001665        0.2166887290545557
27.260000000001664        0.20831091056798356
27.280000000001664        0.20148277689154873
27.300000000001667        0.1959987505889821
27.320000000001677        0.19170152635900065
27.340000000001684        0.18847324102305998
27.360000000001683        0.18622751968048898
27.38000000000168         0.18490599541172764
27.400000000001672        0.18447487360302886
27.420000000001686        0.18492305986488408
27.440000000001675        0.18626153546966537
27.460000000001678        0.18852392176006524
27.48000000000168         0.19176826523902368
27.500000000001677        0.1960801870191632
27.520000000001687        0.2015776630911264
27.54000000000168         0.20841784938761024
27.560000000001683        0.21680655181308256
27.580000000001693        0.22700995137378283
27.60000000000169         0.23937653887275911
27.62000000000169         0.2543548083614615
27.640000000001685        0.27252814117087065
27.660000000001684        0.29465387163010504
27.680000000001694        0.32170942306453615
27.70000000000169         0.3549289654459945
27.720000000001683        0.39576700581847335
27.74000000000167         0.44556461457767
27.76000000000165         0.5042689647107341
27.78000000000164         0.5674416589340849
27.800000000001617        0.6250028660983435
27.820000000001603        0.6685077394070436
27.840000000001606        0.694881506189576
27.860000000001595        0.7080366883783744
27.88000000000159         0.7137575289636722
27.90000000000161         0.7154319000233125
27.9200000000016          0.71403996681191
27.940000000001596        0.7085941327994931
27.9600000000016          0.6956896270449123
27.980000000001606        0.6695356430796418
28.000000000001627        0.6261942145443947
28.02000000000165         0.5687199894915989
28.04000000000166         0.5055650688708142
28.060000000001676        0.4468362797166711
28.080000000001675        0.3969947538761001
28.10000000000167         0.35610621151158556
28.120000000001678        0.32283661032591426
28.140000000001677        0.2957388316099755
28.160000000001673        0.2735754276593645
28.180000000001673        0.2553722976363714
28.200000000001673        0.24037209823169076
28.22000000000169         0.22799039871770654
28.240000000001675        0.21777700048347468
28.260000000001686        0.20938479637856555
28.28000000000168         0.20254548002484085
28.30000000000168         0.19705244682752016
28.32000000000168         0.19274797696227292
28.34000000000168         0.18951369818359204
28.36000000000168         0.18726373615499747
28.3800000000017          0.1859398854491651
28.400000000001686        0.18550827550031218
28.420000000001693        0.1859575627199831
28.44000000000169         0.18729842813998113
28.46000000000169         0.18956443083039148
28.480000000001695        0.1928137261068902
28.500000000001695        0.1971321799921242
28.52000000000169         0.202638143342711
28.5400000000017          0.2094892918842134
28.560000000001693        0.21789212655161116
28.580000000001696        0.2281149711809626
28.600000000001693        0.24050559480205316
28.620000000001696        0.2555148836220502
28.640000000001695        0.2737281178396954
28.660000000001695        0.2959047482938671
28.680000000001698        0.3230233056585769
28.700000000001694        0.3563283151390226
28.7200000000017          0.39727603842075726
28.74000000000169         0.4472120047896619
28.760000000001675        0.5060865976709609
28.780000000001657        0.5694575805831124
28.80000000000164         0.6272209204020462
28.820000000001617        0.6708892843513178
28.840000000001616        0.6973730232970851
28.86000000000161         0.7105943449509854
28.880000000001623        0.7163446335799653
28.90000000000162         0.718030353099086
28.92000000000162         0.7166361525702154
28.940000000001625        0.7111708712762586
28.960000000001635        0.6982212893940818
28.980000000001635        0.6719669083467624
29.000000000001656        0.6284735380257263
29.020000000001648        0.5708115013478733
29.04000000000167         0.5074679444924526
29.060000000001676        0.4485737950896448
29.08000000000168         0.3985971775818141
29.10000000000168         0.3576026686050139
29.120000000001664        0.32425187457747945
29.14000000000166         0.29708856312978127
29.160000000001666        0.2748754204029802
29.180000000001677        0.2566325581576018
29.200000000001673        0.24160113557483712
29.220000000001676        0.2291971689813079
29.24000000000168         0.21896585627767018
29.260000000001686        0.21055969820732878
29.280000000001678        0.20370883956077604
29.300000000001678        0.19820731259669586
29.320000000001688        0.19389721274192587
29.340000000001687        0.19065914009763876
29.36000000000168         0.18840652421917362
29.38000000000168         0.18708076607110982
29.400000000001686        0.1866479205664184
29.420000000001696        0.18709686979642728
29.44000000000169         0.1884387314590331
29.46000000000169         0.1907073510455763
29.48000000000169         0.19396098507534934
29.500000000001695        0.19828583191919005
29.520000000001694        0.20380014773913882
29.540000000001694        0.210662243896562
29.560000000001697        0.21907932124020174
29.580000000001704        0.22932065214076375
29.6000000000017          0.24173526169375478
29.6200000000017          0.2567756864042438
29.640000000001706        0.2750293666420857
29.660000000001702        0.2972585632971892
29.680000000001705        0.3244461107395672
29.7000000000017          0.3578307372683903
29.7200000000017          0.398868661019219
29.740000000001693        0.4489045737861418
29.760000000001675        0.5079253461338896
29.780000000001657        0.5716043177612351
29.800000000001635        0.6295713376515143
29.820000000001627        0.6734136730327813
29.840000000001623        0.7000213846898321
29.860000000001627        0.7133153446580487
29.880000000001615        0.7191022641037673
29.900000000001626        0.720803257270195
29.920000000001625        0.7194083273174172
29.940000000001618        0.7139222425413291
29.960000000001635        0.7009317609967668
29.980000000001635        0.6746500165449367
30.000000000001656        0.6310346115708781
30.020000000001673        0.5730158228997013
30.04000000000168         0.5094881778310545
30.06000000000169         0.4504192272697954
30.080000000001704        0.40030087029227734
30.1000000000017          0.3591947844150464
30.120000000001703        0.3257576829192013
30.1400000000017          0.29852909273135136
30.160000000001702        0.2762672807479816
30.1800000000017          0.25798737118989984
30.2000000000017          0.24292595359890554
30.2200000000017          0.2304957412918843
30.240000000001704        0.22024489679503653
30.26000000000171         0.21182424155480895
30.280000000001717        0.20496373565300893
30.30000000000171         0.1994552854821419
30.320000000001706        0.19513995365876177
30.340000000001698        0.19189760147128407
30.360000000001715        0.18964193804909574
30.38000000000172         0.18831464107435014
30.40000000000171         0.18788147888957185
30.42000000000171         0.1883310131572224
30.44000000000172         0.18967422400414416
30.46000000000171         0.19194502664678456
30.48000000000172         0.19520205233035268
30.50000000000171         0.19953182221733937
30.520000000001716        0.20505351891537382
30.54000000000172         0.2119258312808149
30.56000000000172         0.22035659593163692
30.580000000001718        0.23061597916413346
30.60000000000172         0.2430560099650477
30.620000000001724        0.25812809961079447
30.64000000000172         0.2764231465980062
30.66000000000172         0.29870631095119754
30.68000000000172         0.325964088651608
30.700000000001715        0.35943972926122086
30.72000000000171         0.40059506549661533
30.740000000001704        0.4507808188911023
30.760000000001686        0.5099870944362359
30.78000000000167         0.5738641833974422
30.80000000000165         0.6322019378915243
30.82000000000164         0.6761837364149064
30.840000000001638        0.7028365161001947
30.860000000001634        0.7161869018512477
30.880000000001647        0.7220082726544816
30.900000000001636        0.7237224616827106
30.920000000001643        0.7223248686130219
30.940000000001646        0.7168154853058519
30.960000000001656        0.7037650081118133
30.980000000001667        0.6773672657424025
31.00000000000167         0.6335781752448717
31.02000000000168         0.5753470180266753
31.04000000000169         0.5115010884875736
31.0600000000017          0.452280250142065
31.080000000001704        0.4020588652740358
31.100000000001696        0.36086154063139614
31.120000000001696        0.32734491316502595
31.140000000001717        0.30004764596250516
31.160000000001705        0.27773459930786193
31.18000000000171         0.25941718976811
31.200000000001708        0.24432870277123847
31.220000000001704        0.23187796065707791
31.240000000001718        0.22160993462624076
31.260000000001718        0.21317475273107714
31.280000000001724        0.2063026913372699
31.300000000001724        0.20078549349875424
31.320000000001734        0.1964636696924239
31.340000000001726        0.19321729396955406
31.360000000001712        0.19095921699047755
31.380000000001726        0.18963039703481918
31.400000000001732        0.18919654596046445
31.420000000001718        0.18964627072260012
31.44000000000173         0.1909905889288272
31.460000000001724        0.19326350909675477
31.480000000001723        0.19652381298727142
31.500000000001734        0.2008582682393491
31.520000000001705        0.20638648568759824
31.54000000000174         0.21326785421756517
31.560000000001732        0.22171114612086362
31.580000000001732        0.2319876319903172
31.60000000000173         0.2444489363384084
31.62000000000173         0.25955107383264486
31.640000000001724        0.2778862106557344
31.660000000001716        0.30022310987504336
31.680000000001726        0.3275545284810192
31.70000000000172         0.36112265191103643
31.720000000001725        0.40239847193259265
31.740000000001718        0.4527389101621858
31.760000000001703        0.5121372735504531
31.780000000001696        0.5762369887149151
31.800000000001667        0.6348007655208722
31.820000000001652        0.6789706498376907
31.84000000000166         0.7057534851902639
31.860000000001637        0.7191720400845668
31.880000000001644        0.725030581421971
31.900000000001643        0.7267614987564348
31.920000000001643        0.7253644135834945
31.94000000000164         0.7198323573677268
31.960000000001653        0.7067137181032669
31.980000000001674        0.6801951126007637
32.000000000001684        0.6362255472948347
32.02000000000169         0.5777740002513682
32.04000000000172         0.5137094855931172
32.060000000001715        0.4542993789048272
32.080000000001704        0.4039254180380431
32.10000000000173         0.36260977313478276
32.120000000001724        0.32900326132719593
32.140000000001706        0.3016410370491806
32.16000000000172         0.27927601256863727
32.18000000000171         0.26091861780506403
32.20000000000173         0.2458009730010194
32.22000000000171         0.23333027023633415
32.240000000001736        0.2230481323421024
32.26000000000172         0.21460345055058339
32.28000000000173         0.2077226467395511
32.300000000001724        0.2021972039770497
32.320000000001734        0.19786842546042602
32.34000000000173         0.19461672168576444
32.360000000001726        0.1923548514675969
32.38000000000173         0.1910234601207024
32.40000000000174         0.19058803547507205
32.42000000000174         0.1910371245964351
32.440000000001746        0.19238174787083717
32.460000000001735        0.19465598969153314
32.48000000000173         0.19791882278613745
32.500000000001734        0.20225708348808188
32.52000000000175         0.2077911727012422
32.54000000000175         0.21468091358164584
32.56000000000175         0.22313587620656952
32.580000000001746        0.23342843928138188
32.60000000000174         0.24591170702216208
32.62000000000175         0.2610435910457197
32.64000000000174         0.2794186705424875
32.660000000001745        0.3018088301963217
32.68000000000174         0.32921020393070605
32.70000000000175         0.3628804271703573
32.72000000000174         0.4043018023462621
32.74000000000173         0.4548439767931147
32.7600000000017          0.5144704957091762
32.7800000000017          0.578694391598167
32.800000000001674        0.6374939046412217
32.82000000000166         0.6818555815732426
32.84000000000165         0.708768026776538
32.86000000000166         0.7222583078180623
32.88000000000165         0.7281521351888433
32.900000000001654        0.7298983917092365
32.920000000001664        0.7285019862938812
32.94000000000165         0.7229503551751933
32.96000000000167         0.70975965225767
32.980000000001674        0.6830426143995652
33.0000000000017          0.6388526622589956
33.02000000000171         0.5803314971746417
33.04000000000172         0.516132038368191
33.06000000000173         0.4564193282346204
33.080000000001725        0.40588895127754093
33.10000000000173         0.3644516798676957
33.12000000000173         0.3307525035526326
33.14000000000173         0.30332103280927236
33.16000000000172         0.28090495460060694
33.18000000000173         0.2625094825883312
33.20000000000173         0.2473625627459621
33.22000000000173         0.2348694114517295
33.24000000000173         0.22457226351221554
33.26000000000173         0.21611771552316722
33.28000000000175         0.20923241339077503
33.300000000001745        0.20370555471956833
33.32000000000174         0.19937588995244623
33.34000000000174         0.1961220870327607
33.36000000000174         0.19385686708887526
33.38000000000174         0.1925216514397385
33.40000000000174         0.1920829279552416
33.42000000000174         0.19252964300232828
33.440000000001746        0.1938729214407999
33.46000000000175         0.19614692832411448
33.48000000000175         0.19941079350768504
33.50000000000175         0.2037518642112914
33.52000000000175         0.2092906088681298
33.540000000001754        0.21618761185122928
33.56000000000176         0.2246532775585345
33.58000000000176         0.2349611004768655
33.60000000000177         0.24746390408762065
33.62000000000175         0.26262432701134253
33.64000000000176         0.2810382509564635
33.660000000001766        0.30348087367297794
33.68000000000175         0.33095265499733706
33.70000000000176         0.36471675976698054
33.720000000001754        0.40626217125856023
33.740000000001736        0.45696544295833813
33.76000000000173         0.5167940053932906
33.78000000000171         0.5812718273690946
33.80000000000169         0.6401582375518605
33.820000000001684        0.6847621527669064
33.840000000001666        0.7118971947436461
33.86000000000166         0.725489293046224
33.88000000000166         0.7314201822677653
33.90000000000167         0.7331866758162295
33.92000000000166         0.7317933078877101
33.94000000000167         0.7262204254626743
33.96000000000167         0.7129654759197422
33.98000000000168         0.6861211219622668
34.0000000000017          0.6417421695436141
34.02000000000172         0.5829939633811961
34.040000000001726        0.5185671170229643
34.060000000001736        0.4587332093768733
34.08000000000174         0.40799910985750826
34.10000000000175         0.3664155390955824
34.12000000000175         0.3326146077951175
34.14000000000176         0.3051108354877223
34.16000000000175         0.28264535810277946
34.18000000000175         0.26421109546580224
34.20000000000175         0.24903649750903675
34.22000000000175         0.23652385599822717
34.24000000000176         0.22621213717147662
34.26000000000175         0.21774557725273253
34.28000000000175         0.21085000959443637
34.30000000000176         0.20531515507173642
34.32000000000176         0.20098058763893936
34.34000000000175         0.1977253577171453
34.360000000001754        0.19546127323548732
34.38000000000175         0.19412827227670565
34.40000000000176         0.19369123327899615
34.42000000000177         0.19413819274392044
34.44000000000176         0.19548014965816024
34.46000000000178         0.19775218708482456
34.480000000001766        0.20101465936122728
34.50000000000177         0.2053557308658637
34.52000000000176         0.210896456316269
34.54000000000176         0.21779804744717166
34.56000000000177         0.22627172279500443
34.580000000001775        0.2365920722958311
34.60000000000178         0.24911513730562776
34.620000000001774        0.26430268124869205
34.64000000000178         0.2827542413662675
34.66000000000177         0.30524786716905283
34.680000000001776        0.3327868356164126
34.700000000001765        0.36664387112086777
34.72000000000177         0.4083141220176065
34.74000000000176         0.4591806235865802
34.76000000000173         0.519215065511943
34.78000000000172         0.5839346301137364
34.80000000000171         0.6430694895495476
34.82000000000169         0.6878842995963104
34.84000000000168         0.7151694488906583
34.860000000001676        0.7288500176767855
34.88000000000168         0.7348323957517064
34.9000000000017          0.7366212374508976
34.920000000001686        0.7352331146509479
34.94000000000169         0.7296434714864244
34.9600000000017          0.7163509165640153
34.9800000000017          0.6893660373422618
35.00000000000173         0.6447963434022744
35.02000000000173         0.5858132473679185
35.040000000001754        0.5211502497595423
35.06000000000176         0.4611108122444139
35.08000000000175         0.4102115198833521
35.10000000000175         0.36850023983468905
35.120000000001745        0.33460252251821
35.14000000000174         0.3070265112047846
35.16000000000176         0.28450490718913773
35.18000000000177         0.26603294782826875
35.200000000001765        0.2508312187004187
35.220000000001754        0.23829889395107803
35.24000000000176         0.22797411553641594
35.26000000000175         0.21949819155542682
35.28000000000177         0.21259753914381696
35.30000000000176         0.20706021985724404
35.32000000000178         0.2027239708104327
35.34000000000177         0.19946672521662656
35.360000000001776        0.19719976762474403
35.38000000000177         0.19586318242423142
35.400000000001775        0.19542294483620426
35.42000000000178         0.19586836438063582
35.44000000000177         0.1972108788655895
35.46000000000178         0.19948487258874853
35.48000000000177         0.20274975840531428
35.50000000000179         0.20709328305694882
35.52000000000177         0.2126368228745384
35.54000000000177         0.21954144607887338
35.56000000000178         0.228019922135535
35.58000000000178         0.23834884843796708
35.600000000001785        0.25088630974679155
35.62000000000179         0.26609626891107363
35.640000000001784        0.28458098092604006
35.66000000000177         0.30712203343196365
35.68000000000179         0.3347273328037822
35.70000000000178         0.36866759511278885
35.72000000000177         0.4104378905707366
35.74000000000177         0.4614232285964511
35.76000000000175         0.5216333525597692
35.780000000001735        0.5866861000854935
35.80000000000171         0.6460955958358523
35.8200000000017          0.6911378694876484
35.840000000001695        0.7185929302583578
35.86000000000169         0.7323813416321313
35.880000000001694        0.7384282433168472
35.9000000000017          0.7402573619396283
35.92000000000171         0.7388919729888298
35.94000000000171         0.7333005353214989
35.96000000000173         0.7199607439317856
35.98000000000172         0.6929573544654568
36.00000000000173         0.6482365956464906
36.020000000001744        0.5888523001393668
36.040000000001776        0.5238532705033052
36.060000000001764        0.4637088758567686
36.08000000000175         0.4126360527161035
36.100000000001764        0.37078987978819117
36.12000000000176         0.3367894765329619
36.14000000000178         0.3091365747804714
36.16000000000176         0.28655826972826015
36.18000000000177         0.2680448778534813
36.200000000001765        0.25281315481561767
36.22000000000178         0.24025946912664886
36.24000000000177         0.22991900285236294
36.26000000000177         0.22143355288078836
36.28000000000176         0.2145266548895341
36.30000000000177         0.2089851678079621
36.32000000000178         0.2046461005246248
36.34000000000176         0.20138711804258466
36.36000000000178         0.1991190656964378
36.38000000000178         0.19778224409869463
36.40000000000178         0.1973422894326514
36.42000000000177         0.1977878858912292
36.44000000000178         0.19913011765398472
36.460000000001784        0.201403273821988
36.48000000000179         0.2046668013365019
36.50000000000178         0.20900874719463752
36.52000000000178         0.21455120469247363
36.540000000001804        0.22145747151858275