% Model:              Untitled.mph
% Version:            COMSOL 5.6.0.280
% Date:               Sep 14 2021, 17:11
% Dimension:          1
% Nodes:              701
% Expressions:        1
% Description:        线图
% cln1x                   Height
49.400000000000006        0.2594950965093026
49.41999999999992         0.2573629868329808
49.43999999999991         0.25653504404995203
49.45999999999992         0.2570292744245458
49.47999999999992         0.25889804979332787
49.49999999999993         0.2622314662628075
49.51999999999992         0.26716302984836127
49.53999999999992         0.27387804037743485
49.559999999999924        0.28262528034705475
49.57999999999991         0.2937327492130232
49.59999999999991         0.3076270041569106
49.619999999999905        0.3248588334693569
49.6399999999999          0.3461655362271307
49.65999999999991         0.3725000635751721
49.6799999999999          0.4051351443220796
49.6999999999999          0.4456121700007682
49.719999999999914        0.4957390478763029
49.73999999999991         0.5570946516265033
49.759999999999906        0.6298850043479091
49.7799999999999          0.7092749226540274
49.79999999999991         0.7826768401342885
49.81999999999991         0.8361528456491717
49.839999999999904        0.8672545803360869
49.85999999999992         0.8826823632825602
49.8799999999999          0.8893871250295122
49.8999999999999          0.8912080958403765
49.91999999999989         0.8892603339678729
49.9399999999999          0.8824006150080105
49.95999999999987         0.8667285526038372
49.97999999999987         0.8351936699285188
49.99999999999986         0.7811722855621672
50.019999999999854        0.7072847508469602
50.03999999999985         0.6270338999826784
50.05999999999984         0.5532123681528031
50.07999999999983         0.4906569856261648
50.099999999999824        0.439302604246477
50.11999999999981         0.39750290153756435
50.13999999999982         0.36345911799198477
50.15999999999983         0.3356276861521987
50.17999999999983         0.3127771380842014
50.19999999999982         0.2939492549566903
50.21999999999981         0.2784041904779248
50.23999999999982         0.26557137570169453
50.25999999999981         0.2550104315018852
50.27999999999982         0.24638088042012363
50.29999999999981         0.23942207529373694
50.319999999999816        0.23393315724957886
50.339999999999826        0.22976365381297367
50.35999999999981         0.22680403133123098
50.379999999999804        0.22497958992251585
50.3999999999998          0.22424641814196894
50.4199999999998          0.22458906225101685
50.439999999999806        0.22601974680522077
50.4599999999998          0.2285790782041861
50.4799999999998          0.23233824331043848
50.499999999999794        0.2374028653133271
50.519999999999804        0.2439188610027911
50.53999999999979         0.2520810843639511
50.559999999999796        0.26214412473288035
50.5799999999998          0.2744422409352298
50.599999999999795        0.2894054277983167
50.619999999999784        0.3075921433638394
50.63999999999979         0.3297272735030201
50.65999999999979         0.35675072021762216
50.67999999999979         0.3898722354401038
50.699999999999804        0.4306116174393775
50.71999999999978         0.48074515440281884
50.73999999999978         0.541897494144121
50.75999999999978         0.6140832511961619
50.779999999999774        0.692388354800149
50.79999999999978         0.7644651289914722
50.81999999999978         0.8169941970024015
50.83999999999976         0.8475346080455312
50.859999999999765        0.8625986054594753
50.87999999999976         0.8691421799302923
50.89999999999976         0.8709250767336635
50.91999999999978         0.8690434603527601
50.93999999999976         0.8623967930842396
50.95999999999976         0.8471983262037622
50.97999999999974         0.8165556674198579
50.99999999999974         0.7639046810726263
51.019999999999726        0.6917032649113656
51.039999999999715        0.61326321811553
51.05999999999972         0.5409265444560083
51.079999999999714        0.4796078104188975
51.099999999999696        0.4292852720199614
51.1199999999997          0.38836866892322675
51.139999999999695        0.3550546865419694
51.15999999999969         0.3278304670695265
51.17999999999971         0.30548950376687073
51.19999999999969         0.28709329405297074
51.21999999999969         0.27191740815230353
51.23999999999968         0.2594033097360869
51.25999999999969         0.2491200298594606
51.279999999999696        0.24073497992079518
51.299999999999685        0.23399214961661952
51.31999999999969         0.22869599365977442
51.339999999999684        0.2246996335243075
51.35999999999969         0.22189634342351297
51.37999999999968         0.22021356783947083
51.399999999999686        0.21960918972877536
51.41999999999969         0.2200689776873097
51.43999999999967         0.22160607969197552
51.45999999999967         0.22426162625587925
51.479999999999656        0.2281069272638928
51.499999999999666        0.23324735447428732
51.51999999999966         0.23982823926329444
51.53999999999967         0.24804328451048044
51.55999999999966         0.25814624382423956
51.579999999999664        0.2704669164109854
51.59999999999967         0.2854327837346674
51.61999999999966         0.30359798873824445
51.63999999999965         0.3256813576383434
51.65999999999966         0.3526103619185671
51.67999999999966         0.3855930056372493
51.69999999999965         0.4261321066121143
51.719999999999665        0.47598814595730315
51.73999999999965         0.5367696858554986
51.75999999999966         0.6084827502842266
51.77999999999967         0.6862308795769619
51.79999999999966         0.7577348048919093
51.819999999999666        0.8097841982030195
51.83999999999967         0.8399935350843478
51.85999999999966         0.854912838519326
51.87999999999966         0.8613790488125694
51.89999999999968         0.8631375663785286
51.919999999999646        0.8612784605429105
51.93999999999966         0.8547110470331254
51.95999999999964         0.839690086467689
51.97999999999964         0.8093822684845506
51.99999999999963         0.7572457383316366
52.01999999999961         0.6856702476416874
52.0399999999996          0.6078590611088321
52.0599999999996          0.5360822719152991
52.0799999999996          0.47523205006363006
52.09999999999958         0.4253014965537735
52.11999999999958         0.3846825221844988
52.13999999999958         0.35161546510015357
52.1599999999996          0.3245945176134569
52.17999999999958         0.3024209445956983
52.19999999999958         0.2841655068792134
52.219999999999565        0.2691044253133012
52.23999999999957         0.2566869135914674
52.259999999999565        0.24648563012823657
52.27999999999957         0.23817080616056302
52.299999999999564        0.23148862498402098
52.31999999999957         0.22624524463291115
52.33999999999958         0.22229510114645137
52.35999999999957         0.21953246877320085
52.379999999999576        0.21788556166549217
52.399999999999565        0.21731266586424014
52.41999999999954         0.21779992986505323
52.43999999999957         0.21936062280153681
52.45999999999955         0.22203581562524288
52.47999999999954         0.2258967867872298
52.49999999999955         0.23104813276945577
52.519999999999555        0.23763464816161772
52.53999999999954         0.24584909158548396
52.55999999999957         0.25594393976551016
52.57999999999954         0.268247284116177
52.59999999999954         0.2831843542716518
52.61999999999954         0.30130634377051324
52.63999999999955         0.3233282340512644
52.65999999999954         0.3501763499638959
52.67999999999955         0.38304161546830556
52.69999999999954         0.4234174088624122
52.719999999999544        0.47304450614821664
52.73999999999956         0.5336090540781111
52.759999999999536        0.6050044257122346
52.779999999999546        0.6823859952054556
52.79999999999953         0.753518734489966
52.81999999999954         0.8052606212308145
52.83999999999952         0.8352695687425438
52.85999999999953         0.8500830824852857
52.879999999999534        0.8565028063083908
52.89999999999953         0.85824952673275
52.91999999999954         0.8564018264044548
52.93999999999952         0.8498827041027772
52.959999999999525        0.8349962609758581
52.97999999999952         0.8049988753902029
52.999999999999496        0.7532504384245273
53.0199999999995          0.6818864036087648
53.039999999999466        0.6044680454784768
53.05999999999947         0.5330399869670314
53.07999999999946         0.47248066590289023
53.099999999999454        0.42278634398563325
53.11999999999944         0.38235757395737807
53.13999999999945         0.3494437009279543
53.159999999999435        0.32254666480741967
53.17999999999944         0.3004739592968913
53.19999999999945         0.2822989770373322
53.21999999999945         0.267306894655043
53.23999999999943         0.2549467599991783
53.25999999999944         0.24479353585596514
53.27999999999944         0.23651925645493505
53.29999999999943         0.2298718289492456
53.319999999999446        0.22465774236639885
53.33999999999942         0.22073273959769052
53.35999999999944         0.21799172841316133
53.37999999999943         0.21636338213818834
53.399999999999444        0.21580626073504602
53.419999999999426        0.21630664379912312
53.439999999999415        0.21787781707583484
53.45999999999943         0.22056077998592274
53.47999999999942         0.2244264005564822
53.499999999999424        0.22957925893061573
53.51999999999941         0.23616349494162348
53.53999999999942         0.24437115686178826
53.55999999999942         0.25445486831718406
53.57999999999943         0.26673979492300287
53.599999999999405        0.2816503041250131
53.61999999999941         0.2997354799780043
53.63999999999942         0.3217075705095589
53.659999999999414        0.3484893713819481
53.679999999999396        0.3812672770310106
53.6999999999994          0.4215290089587309
53.719999999999395        0.47100876849550016
53.73999999999939         0.5312915693926751
53.759999999999415        0.6024211967981866
53.779999999999404        0.6796596869945276
53.7999999999994          0.7507180163573521
53.819999999999396        0.8021745992757492
53.8399999999994          0.8319255709572693
53.859999999999395        0.8466645333893437
53.8799999999994          0.853052076253838
53.8999999999994          0.854791302415245
53.919999999999405        0.852955386285232
53.939999999999415        0.8464731193154686
53.95999999999939         0.8316665915422018
53.9799999999994          0.8018181549103082
53.999999999999375        0.7502982474550175
54.019999999999364        0.6792009351281972
54.039999999999345        0.6019398693254765
54.059999999999334        0.5307934847916469
54.07999999999933         0.4704936780778147
54.09999999999932         0.4209942159943321
54.11999999999933         0.3807084871666693
54.13999999999931         0.3479012961309433
54.159999999999314        0.3210901511087574
54.1799999999993          0.2990869610909202
54.19999999999932         0.2809685732152433
54.2199999999993          0.2660228424412139
54.23999999999933         0.2537008889004389
54.2599999999993          0.24357927955479292
54.279999999999305        0.23533129125461266
54.2999999999993          0.22870547130453536
54.3199999999993          0.22350980509195922
54.3399999999993          0.21960013406863535
54.359999999999296        0.21687180632499975
54.3799999999993          0.21525385949013662
54.39999999999929         0.21470498736303628
54.419999999999305        0.2152116443978823
54.43999999999928         0.21678708452203937
54.45999999999928         0.21947217399762886
54.479999999999286        0.22333758377599008
54.49999999999928         0.22848761886658608
54.519999999999285        0.23506602094122692
54.53999999999926         0.24326428816439769
54.55999999999928         0.25333322527495383
54.57999999999927         0.26559872924079864
54.599999999999284        0.28048315682145364
54.61999999999928         0.2985339733754579
54.63999999999928         0.32046147681998194
54.65999999999927         0.3471902451158354
54.679999999999254        0.37989464193804684
54.699999999999264        0.42006180881356037
54.71999999999926         0.4694207855408111
54.73999999999926         0.5295516448941472
54.75999999999926         0.6004962253550487
54.779999999999276        0.6775239920080208
54.79999999999928         0.7483707708184636
54.81999999999928         0.799653638538765
54.83999999999929         0.8293084638630105
54.859999999999275        0.8439670451746957
54.87999999999929         0.8503323977904704
54.89999999999928         0.8520702803932264
54.91999999999927         0.850248160129054
54.93999999999926         0.8437914615400365
54.959999999999276        0.8290481153417624
54.979999999999244        0.7993170509750354
54.99999999999926         0.7479770373358209
55.01999999999923         0.6770976974434256
55.039999999999225        0.6000540381568109
55.059999999999214        0.5290998453351423
55.0799999999992          0.4689596960463954
55.09999999999918         0.41958927358130116
55.11999999999919         0.37940774594175136
55.139999999999176        0.3466860327381297
55.15999999999919         0.3199410859081783
55.179999999999175        0.29799038880595
55.19999999999917         0.2799120065003321
55.21999999999917         0.2650012411831946
55.23999999999916         0.25270778316058157
55.25999999999919         0.24260945697519945
55.27999999999916         0.23438051178721078
55.299999999999166        0.22777024536693158
55.319999999999155        0.22258721879895713
55.33999999999916         0.21868770931665285
55.35999999999916         0.2159673869520081
55.37999999999916         0.21435548376432345
55.39999999999917         0.213810949278462
55.41999999999915         0.21432026193365206
55.439999999999166        0.21589670703278183
55.459999999999155        0.21858106245783643
55.47999999999916         0.22244357475582044
55.49999999999915         0.22758857038102118
55.51999999999914         0.23415928138548348
55.53999999999915         0.2423467307756183
55.55999999999913         0.2524010910731592
55.57999999999913         0.2646474301149595
55.599999999999135        0.27950703468042687
55.61999999999913         0.29752598241863304
55.63999999999914         0.3194127444699666
55.659999999999144        0.3460856823231414
55.67999999999913         0.37872668794143055
55.69999999999913         0.41882045700917747
55.71999999999913         0.46810176010643706
55.73999999999912         0.528153994467864
55.75999999999913         0.5988425161254537
55.779999999999134        0.6756865689505104
55.799999999999166        0.7463490522791754
55.819999999999155        0.7974805056726113
55.839999999999165        0.8270380548607387
55.85999999999916         0.8416462494333342
55.879999999999164        0.8479903540847636
55.89999999999915         0.8497239281622929
55.919999999999156        0.8479105523901908
55.939999999999145        0.8414859844844959
55.95999999999915         0.8267753543193752
55.97999999999915         0.7970462211207244
55.999999999999126        0.7457948669804798
56.01999999999911         0.6752835991576305
56.03999999999908         0.5984271302782126
56.05999999999909         0.527638321758041
56.07999999999906         0.4676353804088382
56.09999999999906         0.41837565909901864
56.11999999999903         0.37828255053894705
56.13999999999905         0.3456313415326812
56.15999999999904         0.31894273052141453
56.17999999999904         0.2970372035887358
56.19999999999903         0.27899740248186705
56.21999999999904         0.2641153035195342
56.23999999999904         0.2518450763323753
56.25999999999903         0.2417656017643344
56.279999999999056        0.23355193285126308
56.29999999999903         0.22695366143476867
56.31999999999904         0.22178057017211994
56.33999999999902         0.2178888221052476
56.35999999999904         0.2151743583078247
56.37999999999903         0.2135665980362394
56.399999999999025        0.21302460514861737
56.41999999999903         0.21353490821470986
56.43999999999903         0.2151107892634757
56.459999999999035        0.21779297902332642
56.47999999999902         0.22165181061449654
56.49999999999902         0.22679102789710395
56.51999999999902         0.2333536276764881
56.539999999999           0.24153015870141076
56.55999999999903         0.2515702336258616
56.57999999999901         0.26379661953524297
56.599999999999014        0.27863213468813613
56.61999999999902         0.2966204957708819
56.63999999999903         0.3184685239527105
56.659999999999016        0.34509242138922974
56.679999999999026        0.37767129347711303
56.69999999999901         0.4176863503915392
56.71999999999901         0.4668683175260792
56.73999999999901         0.5267967140791734
56.75999999999901         0.5974655109175641
56.77999999999901         0.6740201182673101
56.79999999999902         0.7443240012431475
56.81999999999904         0.7953848491168561
56.83999999999901         0.824969421866538
56.85999999999902         0.8395323025085882
56.87999999999902         0.8458574052183733
56.89999999999902         0.8475872830215114
56.919999999999014        0.8457820367599609
56.93999999999901         0.8393809267779078
56.95999999999901         0.8247202179524717
56.979999999999           0.7950835435296709
56.999999999999           0.7439732665620294
57.01999999999898         0.6736422751197808
57.03999999999897         0.5970762390948722
57.05999999999895         0.526402341937437
57.07999999999896         0.46646950669682125
57.09999999999894         0.41728142260568
57.119999999998946        0.3772587108900927
57.13999999999891         0.3446716339202441
57.15999999999894         0.3180342554594261
57.17999999999893         0.2961697867978271
57.19999999999894         0.278162991845264
57.21999999999892         0.26330749146865545
57.23999999999892         0.2510587270434761
57.25999999999891         0.24099656023413057
57.279999999998914        0.23279680343096984
57.29999999999893         0.22620996164464535
57.31999999999891         0.2210455235484999
57.339999999998916        0.21716046252557752
57.35999999999891         0.21445095213181795
57.379999999998915        0.21284656599848323
57.399999999998904        0.21230646123815927
57.41999999999892         0.2128172287752199
57.43999999999891         0.21439209604435197
57.45999999999891         0.2170717178414134
57.479999999998924        0.2209263040334265
57.499999999998906        0.22605942185104708
57.5199999999989          0.2326137630956916
57.53999999999889         0.24077942309554948
57.5599999999989          0.2508054008277124
57.5799999999989          0.2630153055587434
57.5999999999989          0.2778285484161997
57.619999999998896        0.295788723182301
57.6399999999989          0.3176009160737446
57.65999999999892         0.3441748113264755
57.6799999999989          0.3766954177453072
57.6999999999989          0.4166369318719273
57.71999999999889         0.46572638404217603
57.7399999999989          0.5255397715411025
57.759999999998904        0.5960697659846984
57.77999999999891         0.6724672794640106
57.79999999999892         0.7426139916613307
57.81999999999891         0.7935457348234081
57.83999999999893         0.8230319347532428
57.85999999999893         0.8375739023445605
57.879999999998915        0.8438785166836984
57.89999999999891         0.8456009672826397
57.919999999998915        0.84379929469734
57.93999999999892         0.8374236755329154
57.959999999998914        0.8228088973989266
57.979999999998896        0.793257161459015
57.99999999999888         0.7422767844379703
58.01999999999889         0.6721041435346173
58.03999999999886         0.5956972129691677
58.059999999998865        0.5251643054132826
58.079999999998826        0.4653484749242864
58.099999999998836        0.4162547400716956
58.119999999998825        0.3763064429140549
58.13999999999882         0.34377650787446923
58.15999999999882         0.31718706534645086
58.17999999999881         0.2953617827608927
58.19999999999881         0.27738668064996774
58.21999999999881         0.2625582784478593
58.239999999998815        0.25032957333505407
58.25999999999881         0.2402835731194537
58.27999999999882         0.2320967959152273
58.29999999999881         0.22552028566249505
58.319999999998814        0.220363942923789
58.3399999999988          0.21648506188503952
58.35999999999881         0.21378006057784715
58.379999999998816        0.2121786802596084
58.39999999999882         0.21164016777474134
58.41999999999881         0.21215110985845254
58.43999999999882         0.21372473497530894
58.45999999999882         0.2164016097299373
58.479999999998796        0.22025201265002178
58.49999999999881         0.22537898341231952
58.5199999999988          0.23192510092172358
58.5399999999988          0.2400801011744884
58.55999999999879         0.2500924484455893
58.57999999999879         0.26228502312898894
58.5999999999988          0.2770763177545716
58.6199999999988          0.29500879672976904
58.63999999999881         0.3167860998073371
58.65999999999879         0.3433198660791635
58.679999999998806        0.37578219035684424
58.69999999999878         0.4156429626845266
58.71999999999878         0.4646156518422191
58.73999999999877         0.5242654471167854
58.75999999999879         0.5947580265464849
58.779999999998786        0.6710073524150719
58.79999999999881         0.7410065211253639
58.81999999999882         0.7918177109986646
58.83999999999881         0.8212265760415685
58.859999999998806        0.8357287511623378
58.87999999999881         0.8420168625123918
58.899999999998805        0.843736274447438
58.91999999999881         0.8419419428327503
58.93999999999881         0.8355806310419582
58.959999999998814        0.8210316283029848
58.979999999998796        0.7916604558393291
58.99999999999878         0.740871514608639
59.019999999998774        0.67065958775947
59.03999999999877         0.5944100872078046
59.05999999999874         0.5240082268138858
59.07999999999873         0.4643011802987179
59.099999999998715        0.41529535060364764
59.11999999999873         0.3754173933513295
59.139999999998714        0.34294364402729344
59.1599999999987          0.3163991613545769
59.179999999998714        0.2946099560002321
59.1999999999987          0.2766638909757453
59.219999999998706        0.26185735586599274
59.2399999999987          0.249648067198579
59.25999999999871         0.23961768939105405
59.279999999998694        0.2314434370760959
59.299999999998725        0.22487721282176243
59.31999999999869         0.21972857066643325
59.3399999999987          0.21585557081853343
59.35999999999869         0.2131548367296663
59.379999999998695        0.21155626461597488
59.39999999999869         0.21101920679085662
59.419999999998694        0.21153029564671105
59.43999999999869         0.21310273555172377
59.45999999999869         0.21577700837718866
59.4799999999987          0.21962303703726044
59.4999999999987          0.2247439809782169
59.51999999999869         0.2312819965602051
59.539999999998685        0.2394264603776777
59.55999999999868         0.2494253680949073
59.57999999999868         0.26160249940230396
59.59999999999869         0.27637297782275466
59.61999999999867         0.29427922853579463
59.63999999999868         0.316023511076141
59.65999999999868         0.34251571052801905
59.679999999998685        0.3749256915196075
59.69999999999868         0.41472056795102025
59.71999999999868         0.4636105792481833
59.73999999999867         0.5231578168586576
59.75999999999869         0.5933976407541345
59.77999999999869         0.6696279934187781
59.79999999999869         0.7396780482878084
59.81999999999871         0.7903091351660956
59.83999999999871         0.81954660256321
59.85999999999871         0.8339963831673382
59.8799999999987          0.8402690586350643
59.899999999998705        0.8419856457174796
59.919999999998716        0.8401981652581703
59.9399999999987          0.8338561801672839
59.9599999999987          0.8193479706053405
59.979999999998704        0.7900521905084786
59.99999999999867         0.7393788322544024
60.01999999999867         0.669307427576699
60.03999999999863         0.5930696076734062
60.05999999999865         0.5228274747830594
60.07999999999862         0.46327838930004095
60.099999999998616        0.41438512483495854
60.11999999999859         0.3745840571313498
60.1399999999986          0.34216373512037024
60.1599999999986          0.31566201928313353
60.1799999999986          0.29390715431459263
60.199999999998596        0.27598875388150923
60.219999999998606        0.2612045638957578
60.23999999999859         0.24901334804660097
60.259999999998584        0.23899757890675782
60.2799999999986          0.23083509454192536
60.29999999999858         0.22427795604307146
60.3199999999986          0.2191368362914439
60.33999999999858         0.21526960130178036
60.35999999999859         0.2125730806649807
60.379999999998574        0.21097730480446936
60.39999999999858         0.21044170750677174
60.41999999999857         0.21095294045437724
60.4399999999986          0.21252424395194783
60.45999999999858         0.21519604304784962
60.479999999998576        0.21903812877942802
60.499999999998586        0.22415346520080595
60.51999999999858         0.23068394635989542
60.53999999999857         0.23881860803412175
60.559999999998574        0.24880501898280494
60.57999999999858         0.2609648430979245
60.59999999999857         0.27571491964520806
60.61999999999856         0.29359559741295543
60.63999999999859         0.31530799725064296
60.65999999999856         0.34176106985814647
60.67999999999856         0.37412556745172904
60.699999999998546        0.4138584335168232
60.71999999999856         0.462670681565961
60.739999999998545        0.5221215229623778
60.75999999999856         0.5922453097276957
60.77999999999858         0.6683447829115939
60.7999999999986          0.7382646037656726
60.819999999998615        0.788789674737798
60.83999999999862         0.8179595589128035
60.85999999999862         0.8323680905314582
60.87999999999862         0.8386289950535635
60.89999999999861         0.8403468324331833
60.91999999999861         0.8385696524959816
60.939999999998584        0.8322419591847079
60.959999999998615        0.8177720651452334
60.9799999999986          0.7885471281277391
60.99999999999858         0.7379823431538927
61.01999999999856         0.6680428192575638
61.03999999999855         0.5919368870368891
61.05999999999851         0.5218115687291899
61.07999999999851         0.4623596821942658
61.09999999999849         0.41354509992651
61.1199999999985          0.37380801353831494
61.139999999998494        0.34144109326193617
61.159999999998476        0.314979929471673
61.17999999999849         0.2932569414374051
61.1999999999985          0.2753641103969123
61.2199999999985          0.2605990978380946
61.239999999998496        0.24842527663109845
61.259999999998506        0.23842365361731743
61.2799999999985          0.23027265176450057
61.2999999999985          0.2237247829343915
61.31999999999849         0.2185910650389466
61.33999999999848         0.2147296239826015
61.359999999998486        0.21203747859072766
61.379999999998475        0.21044478722279408
61.39999999999849         0.20991105701692842
61.41999999999849         0.2104229927665303
61.4399999999985          0.21199380067702175
61.45999999999847         0.2146638709714223
61.4799999999985          0.2185029146127955
61.49999999999847         0.22361341424345202
61.51999999999848         0.23013753282216343
61.53999999999848         0.23826377525076717
61.55999999999848         0.24823930462816393
61.579999999998485        0.260385274598197
61.599999999998474        0.2751178727081733
61.6199999999985          0.292976547582941
61.63999999999847         0.31466123735014917
61.65999999999849         0.34107934896095216
61.67999999999847         0.3733988198930261
61.69999999999846         0.41308695492111536
61.719999999998485        0.4618582844389799
61.73999999999846         0.5212768423317528
61.75999999999847         0.5912025248426417
61.77999999999847         0.6671839263641726
61.7999999999985          0.7369859964729443
61.8199999999985          0.7874148372888102
61.8399999999985          0.8165230749165258
61.85999999999849         0.8308997296381173
61.879999999998496        0.8371472159912207
61.899999999998485        0.8388623451312115
61.919999999998495        0.8370907378485338
61.93999999999851         0.8307858607989947
61.95999999999849         0.8163294725368806
61.9799999999985          0.7870711515082423
61.999999999998465        0.7365392212037724
62.019999999998454        0.6669106816540381
62.03999999999843         0.5909203837113263
62.05999999999842         0.5209061789890622
62.07999999999839         0.4615482928605488
62.0999999999984          0.41281140456939547
62.11999999999838         0.37313825606502327
62.13999999999839         0.3408242304338882
62.15999999999838         0.3144072756699846
62.179999999998365        0.29272173206479496
62.19999999999838         0.27486110607682396
62.21999999999837         0.26012581916994737
62.239999999998375        0.24797658700029276
62.25999999999836         0.2379973646570549
62.27999999999839         0.22986714460039617
62.29999999999837         0.22333890060691247
62.31999999999837         0.21822382531685275
62.33999999999836         0.21438086360622716
62.359999999998365        0.2117070055240897
62.37999999999837         0.2101326625215109
62.399999999998386        0.20961756597442047
62.41999999999836         0.21014862293758027
62.43999999999836         0.21173922801389775
62.45999999999837         0.21442996086604937
62.47999999999837         0.21829071890927418
62.49999999999835         0.22342450444440787