% Model:              Untitled.mph
% Version:            COMSOL 5.6.0.280
% Date:               Sep 14 2021, 17:12
% Dimension:          1
% Nodes:              961
% Expressions:        1
% Description:        线图
% cln1x                   Height
49.400000000000006        0.23136544657571664
49.420000000000016        0.2291349470531553
49.44000000000002         0.22807109539886897
49.460000000000015        0.2281864279912752
49.480000000000025        0.2295240552750632
49.50000000000003         0.2321605757574432
49.52000000000006         0.23621099462055137
49.54000000000003         0.24183609434080142
49.56000000000005         0.24925285061972413
49.58000000000005         0.25874886486183113
49.60000000000006         0.2707021340079219
49.620000000000076        0.28560790837045646
49.64000000000006         0.3041146029719701
49.660000000000046        0.3270699619952923
49.680000000000064        0.3555752142006712
49.70000000000008         0.39103001807697557
49.72000000000007         0.4350953732503956
49.740000000000066        0.489223820158612
49.76000000000007         0.55344922323083
49.780000000000065        0.6225389802790602
49.800000000000075        0.684681999481731
49.820000000000064        0.7305699589852909
49.840000000000074        0.7571595168814712
49.86000000000007         0.7692098164216211
49.880000000000074        0.7724737365873835
49.90000000000007         0.7690220341057541
49.920000000000066        0.7567052706668411
49.940000000000076        0.7296586499286788
49.96000000000007         0.6831716583290766
49.98000000000007         0.6204810065201507
50.00000000000007         0.55045465261885
50.02000000000008         0.48511126371499597
50.04000000000007         0.4296903238200177
50.06000000000007         0.3842928896335066
50.08000000000007         0.34741239307681326
50.10000000000007         0.3174103927725326
50.12000000000008         0.2928971653947381
50.14000000000008         0.2727732552810396
50.16000000000009         0.25618784332629274
50.180000000000085        0.24248633706973366
50.2000000000001          0.2311650878896228
50.220000000000084        0.22183596050220297
50.24000000000009         0.21419960421624307
50.2600000000001          0.20802560023530905
50.2800000000001          0.20313764237229387
50.300000000000104        0.19940371815612326
50.32000000000011         0.19672698679827752
50.340000000000124        0.19504142735647018
50.36000000000012         0.19430795021651343
50.38000000000012         0.1945123222847544
50.40000000000013         0.19566446444981536
50.42000000000014         0.19779905733028366
50.44000000000013         0.20097741714840406
50.46000000000014         0.20529084692460736
50.48000000000015         0.21086579462950675
50.50000000000015         0.21787126138156698
50.52000000000015         0.2265291137983632
50.540000000000155        0.23712822644517567
50.560000000000166        0.2500417324393924
50.58000000000017         0.26576010672257067
50.600000000000165        0.28491601988796167
50.62000000000018         0.30833469726527485
50.64000000000017         0.33708446548100607
50.660000000000174        0.3725193150974007
50.680000000000184        0.4162410072801242
50.70000000000017         0.4697213343445854
50.72000000000017         0.5328095415896611
50.74000000000016         0.6002340453104269
50.760000000000154        0.6605378432462575
50.78000000000014         0.705110174809729
50.80000000000016         0.7308702735001321
50.820000000000135        0.7424857995911851
50.840000000000146        0.7456352684337746
50.86000000000015         0.7423592424523869
50.88000000000014         0.7306220120506894
50.90000000000015         0.704718445620686
50.92000000000015         0.6599840940036827
50.940000000000154        0.5994978663325317
50.960000000000164        0.5318650203862696
50.980000000000175        0.46854089521490483
51.00000000000015         0.41480188614394753
51.02000000000015         0.37080489262592997
51.04000000000016         0.33508304348270085
51.06000000000016         0.3060380054891662
51.08000000000016         0.2823180204214242
51.100000000000165        0.2628588696164611
51.12000000000018         0.2468298211768442
51.14000000000017         0.2336007167065552
51.160000000000174        0.22268421341322311
51.180000000000184        0.21370487061204643
51.20000000000019         0.20637325110150118
51.22000000000017         0.20046669624662186
51.24000000000019         0.19581517204949922
51.26000000000021         0.19229093116430582
51.28000000000019         0.18980107734406715
51.300000000000196        0.18828238799934316
51.3200000000002          0.18769788375844385
51.34000000000021         0.18803483504168955
51.36000000000021         0.18930408728852458
51.38000000000021         0.19154076537497985
51.400000000000205        0.19480575506552594
51.420000000000215        0.1991895855160724
51.440000000000225        0.2048172120087409
51.46000000000022         0.2118553824449032
51.48000000000024         0.22052278245103246
51.50000000000023         0.23110394438620124
51.52000000000023         0.24396818009914792
51.540000000000234        0.25959511679347635
51.56000000000024         0.278608558480417
51.58000000000025         0.3018198347484607
51.60000000000024         0.3302781348906658
51.620000000000246        0.36531080568898255
51.64000000000026         0.40848410163084975
51.660000000000245        0.46132226531148707
51.68000000000024         0.523564411323678
51.70000000000026         0.5900123700689709
51.720000000000255        0.6493436989851459
51.740000000000244        0.6931338063354373
51.76000000000026         0.718382659465549
51.78000000000026         0.7297458066744671
51.80000000000026         0.7328258319861166
51.82000000000027         0.7296272012619124
51.840000000000266        0.7181634556245926
51.860000000000255        0.6928845370267154
51.88000000000025         0.6490538335391173
51.90000000000027         0.5894369101041662
51.92000000000026         0.5228696002514328
51.940000000000246        0.46050406353817575
51.96000000000025         0.40756862669442795
51.980000000000246        0.36422710097102917
52.00000000000025         0.3290358564220387
52.02000000000025         0.3004209410116181
52.04000000000025         0.2770514920708141
52.06000000000025         0.257877278827458
52.080000000000275        0.24208687883428517
52.10000000000026         0.22905663274403196
52.12000000000026         0.21830701593432536
52.14000000000027         0.2094686881791692
52.16000000000027         0.2022569593532124
52.18000000000028         0.19645285804497623
52.20000000000026         0.19188938864429533
52.220000000000304        0.18844055511023697
52.24000000000028         0.18601538931796074
52.26000000000028         0.18455187234344317
52.28000000000028         0.18401384351010755
52.30000000000028         0.18438904901592493
52.320000000000285        0.18568849130584592
52.34000000000029         0.18794701977658787
52.36000000000032         0.19122520441027868
52.38000000000031         0.19561265108816023
52.400000000000304        0.20123304610603135
52.42000000000031         0.20825137400787944
52.440000000000296        0.21688395283023004
52.460000000000306        0.22741219107658764
52.4800000000003          0.24020328772677288
52.50000000000032         0.25572834845930836
52.520000000000316        0.2746056268663967
52.540000000000326        0.29763743177753443
52.560000000000315        0.32586131391104234
52.580000000000325        0.36058995568292806
52.60000000000033         0.40337227100101214
52.62000000000033         0.45562995118122074
52.64000000000032         0.5172369855218698
52.66000000000034         0.5831146107965286
52.680000000000355        0.6419378907081218
52.700000000000344        0.685109079768291
52.72000000000035         0.7099196636210297
52.74000000000033         0.7211031551037018
52.76000000000034         0.7241364452628314
52.78000000000034         0.7209909993850714
52.80000000000034         0.709707787642385
52.820000000000334        0.6847926457797565
52.84000000000032         0.6415237796907073
52.86000000000034         0.5826143830075774
52.88000000000033         0.5166588720709601
52.900000000000325        0.45497407368829035
52.920000000000336        0.40263429720883637
52.94000000000034         0.35976452016077265
52.96000000000033         0.3249434077019926
52.98000000000033         0.296622762110871
53.00000000000035         0.2734906010581095
53.020000000000344        0.25450724989986523
53.040000000000354        0.23887693370085675
53.06000000000034         0.22597949227304578
53.080000000000354        0.21534072062442736
53.10000000000035         0.20659539855689915
53.120000000000346        0.19946203148753727
53.14000000000038         0.1937241275872529
53.160000000000366        0.18921642809856185
53.180000000000376        0.18581485849094853
53.20000000000037         0.18342929103946803
53.22000000000038         0.18199848205664582
53.24000000000038         0.18148676420311935
53.26000000000037         0.18188216779326663
53.28000000000037         0.18319577102401025
53.300000000000395        0.1854621560310912
53.320000000000405        0.18874168237881914
53.3400000000004          0.19312323279947158
53.3600000000004          0.1987295421999122
53.38000000000041         0.2057242870058642
53.40000000000042         0.2143220421996261
53.42000000000039         0.2248019320035286
53.44000000000041         0.23752619135575592
53.460000000000434        0.2529652215843343
53.480000000000416        0.27173094888927396
53.50000000000043         0.2946196956977833
53.52000000000042         0.3226623554976683
53.54000000000042         0.35716556301263985
53.56000000000042         0.39963937297717683
53.580000000000425        0.4515212800644601
53.60000000000042         0.5126718100822463
53.62000000000041         0.5780336738233874
53.640000000000434        0.6363514554620584
53.66000000000041         0.6791208907435602
53.680000000000405        0.7036726819478171
53.7000000000004          0.7147233639406894
53.720000000000404        0.7177290344497314
53.74000000000041         0.7146295078104736
53.76000000000041         0.7034656459581385
53.780000000000406        0.6787318377428178
53.8000000000004          0.6357985304170031
53.82000000000042         0.5775792261683008
53.84000000000041         0.5121667016455403
53.86000000000041         0.4509644997443055
53.88000000000041         0.3990293634950104
53.90000000000041         0.35648961962238607
53.920000000000414        0.32193552080120114
53.940000000000424        0.2938310558770953
53.96000000000045         0.27087470046995255
53.98000000000043         0.2520378560582409
54.00000000000042         0.2365251821956053
54.02000000000044         0.22372515333348417
54.04000000000043         0.21316750939824847
54.06000000000044         0.20449004221963218
54.08000000000044         0.197413579155358
54.100000000000456        0.19172342494546887
54.12000000000046         0.18725552675262677
54.140000000000455        0.1838873083914654
54.160000000000444        0.1815291850181294
54.180000000000454        0.1801205182797107
54.20000000000046         0.17962601970018713
54.22000000000046         0.18003386854038925
54.24000000000048         0.1813551298096103
54.260000000000474        0.1836243607603628
54.280000000000484        0.18690143806381423
54.30000000000047         0.19127481659358878
54.320000000000476        0.19686650375151912
54.34000000000048         0.20383917735128076
54.36000000000048         0.21240608119161294
54.380000000000486        0.22284321135745266
54.40000000000049         0.23551268119713853
54.420000000000506        0.2508809295563851
54.44000000000049         0.2695559213385809
54.46000000000049         0.2923288132030146
54.4800000000005          0.32022385686409577
54.50000000000051         0.35453934144003696
54.52000000000051         0.39681088967017214
54.54000000000051         0.44844488172920727
54.56000000000053         0.509264599169337
54.58000000000051         0.5741054388642892
54.60000000000051         0.6318654144762614
54.62000000000051         0.6744062629658966
54.64000000000051         0.6988484106516532
54.660000000000515        0.7098116985831604
54.68000000000051         0.7127928933619625
54.70000000000053         0.7097248904222774
54.72000000000051         0.6986647373606184
54.74000000000053         0.6741388324293125
54.76000000000052         0.6315253873958024
54.78000000000051         0.5737088343500403
54.80000000000051         0.5088240004860951
54.82000000000052         0.44796585657091986
54.84000000000051         0.39629411258257174
54.86000000000052         0.3539830470197725
54.88000000000053         0.3196253736467322
54.90000000000052         0.29168531159489614
54.92000000000053         0.26886471413583796
54.94000000000052         0.25014221803438846
54.960000000000534        0.2347208124770393
54.98000000000054         0.22199621434390965
55.00000000000053         0.21150118031075202
55.02000000000053         0.20287583743759188
55.04000000000054         0.1958428220503368
55.06000000000056         0.1901888388503453
55.080000000000545        0.18575109565255554
55.10000000000056         0.18240740633864203
55.12000000000055         0.1800690693265814
55.140000000000576        0.17867588388621602
55.16000000000055         0.17819286402721787
55.18000000000055         0.17860836244616468
55.20000000000058         0.1799335154112066
55.220000000000574        0.182202598337163
55.24000000000057         0.18547521730070604
55.26000000000057         0.18983940395093163
55.280000000000584        0.19541657356868802
55.30000000000058         0.20236859308503138
55.32000000000058         0.2109076243798089
55.3400000000006          0.2213096209896962
55.36000000000059         0.23393267653490207
55.38000000000059         0.2492417595479277
55.400000000000595        0.2678415511165402
55.4200000000006          0.29051851695238473
55.44000000000061         0.31828982931911115
55.46000000000061         0.3524426260751247
55.48000000000062         0.3945310119963053
55.50000000000061         0.44592615225218896
55.52000000000061         0.506457902797033
55.540000000000624        0.5709746452888498
55.56000000000061         0.6284170432379667
55.580000000000624        0.6707052021097962
55.600000000000605        0.6949833864894697
55.620000000000616        0.7058729435639644
55.640000000000605        0.7088262210781117
55.66000000000063         0.7057763345293686
55.68000000000062         0.6948118218205658
55.70000000000061         0.6705374642453361
55.72000000000059         0.6282597345761123
55.7400000000006          0.5706004755476689
55.760000000000616        0.5060434547672595
55.78000000000061         0.445485781274649
55.80000000000061         0.39406599089642824
55.820000000000604        0.35196029582938665
55.84000000000063         0.31776862323514343
55.8600000000006          0.28996278440981244
55.880000000000614        0.2672511351891923
55.900000000000624        0.24861484841328432
55.92000000000063         0.23326702816857087
55.94000000000063         0.2206030115964209
55.96000000000063         0.21015796507950166
55.98000000000065         0.2015739205927136
56.00000000000063         0.1945750005938576
56.02000000000063         0.1889493377581068
56.04000000000064         0.18453437048136653
56.060000000000656        0.18120898565394306
56.08000000000066         0.1788849647550789
56.10000000000066         0.17750244715324062
56.12000000000068         0.17702666443344967
56.14000000000066         0.17744608172109996
56.160000000000664        0.17877178550554815
56.18000000000067         0.18103806211250278
56.200000000000664        0.18430421907661002
56.22000000000068         0.1886578415620523
56.24000000000068         0.19421976776578953
56.260000000000694        0.20115112940695934
56.28000000000069         0.20966312400869558
56.300000000000686        0.22003181435492136
56.32000000000068         0.2326115025457557
56.340000000000686        0.24786600930272118
56.36000000000068         0.26639730608502277
56.3800000000007          0.28898835280715596
56.400000000000716        0.31665179455095166
56.420000000000705        0.35066905987602665
56.440000000000715        0.3925523844504609
56.46000000000071         0.4436881138080976
56.48000000000071         0.5039389759976532
56.50000000000071         0.5682926836718234
56.5200000000007          0.6256315839141916
56.54000000000071         0.6676285236003684
56.56000000000071         0.691686949805059
56.58000000000072         0.7025052790952122
56.60000000000071         0.7054422598006005
56.62000000000071         0.7024140419410327
56.64000000000071         0.6915198119402154
56.66000000000071         0.6673864200024854
56.68000000000072         0.6253271674363202
56.7000000000007          0.5679439623413192
56.72000000000071         0.5035601747319483
56.74000000000071         0.44328630584314477
56.76000000000073         0.3921295999968278
56.78000000000072         0.35022457700626375
56.800000000000715        0.3161836693584449
56.82000000000072         0.2884942347249826
56.840000000000714        0.2658714842118567
56.86000000000073         0.2473102004025859
56.880000000000734        0.2320236448145929
56.90000000000075         0.21940983207564757
56.920000000000734        0.20900599988124288
56.94000000000074         0.20045578200055109
56.96000000000074         0.19348453590996695
56.980000000000736        0.18788106745068855
57.00000000000074         0.1834841955524716
57.020000000000756        0.18017295224191887
57.040000000000774        0.17785953256336975
57.06000000000076         0.17648436249892327
57.08000000000076         0.17601284989201266
57.10000000000077         0.1764335366312577
57.120000000000765        0.17775742255324442
57.14000000000077         0.1800187892089024
57.16000000000077         0.18327672115290236
57.1800000000008          0.18761848740686837
57.200000000000784        0.19316440445488567
57.22000000000079         0.20007489555748462
57.240000000000784        0.20856028284856035
57.26000000000079         0.21889414545894287
57.28000000000079         0.2314315044072242
57.3000000000008          0.2466333883147622
57.32000000000082         0.26509952581789553
57.34000000000082         0.28761040052554837
57.360000000000824        0.31517653374130766
57.38000000000081         0.349079002212748
57.40000000000082         0.3907983012791798
57.420000000000805        0.44174305800910013
57.44000000000081         0.50176527818411
57.46000000000081         0.5658628416231766
57.48000000000079         0.6229511545219438
57.500000000000824        0.6647492489177802
57.520000000000806        0.6886793189013066
57.540000000000816        0.6994287088947033
57.5600000000008          0.7023550560032292
57.5800000000008          0.6993521369960961
57.6000000000008          0.6885088822073283
57.6200000000008          0.6644193840095066
57.64000000000079         0.6224799557158094
57.66000000000081         0.5655212354521723
57.68000000000082         0.5013972805024134
57.700000000000806        0.44135662165933043
57.72000000000082         0.39039534367208567
57.74000000000082         0.3486495120886066
57.76000000000082         0.31473713334063286
57.78000000000083         0.2871514420869624
57.80000000000083         0.2646160053594807
57.82000000000083         0.24612231680899377
57.84000000000082         0.23089072750894807
57.86000000000084         0.218321864726747
57.88000000000084         0.20795486419986844
57.900000000000844        0.19943478734866787
57.92000000000085         0.19248809016331792
57.94000000000085         0.18690414856921322
57.96000000000087         0.1825230729800337
57.98000000000086         0.17922397142550786
58.00000000000087         0.17691939857459887
58.020000000000856        0.1755500272379381
58.040000000000866        0.1750814122493169
58.060000000000876        0.1755021502818936
58.08000000000088         0.1768232784264454
58.100000000000875        0.17907886021987032
58.12000000000088         0.1823278081943309
58.14000000000089         0.18665709662102714
58.160000000000885        0.19218663747011044
58.18000000000088         0.19907625327555714
58.2000000000009          0.20753541696101613
58.220000000000894        0.217835270879592
58.2400000000009          0.2303316210645361
58.2600000000009          0.24548277011039624
58.280000000000925        0.26388612513479676
58.30000000000092         0.28631916509816097
58.3200000000009          0.31378856281141154
58.34000000000092         0.347570589835196
58.36000000000091         0.3891751081286715
58.38000000000092         0.4399839276080712
58.40000000000092         0.4998133495125804
58.42000000000092         0.5635478417817237
58.44000000000089         0.6202349983344259
58.4600000000009          0.6619282299246225
58.480000000000885        0.6858328760244533
58.50000000000088         0.6965254969801055
58.52000000000089         0.6994368798091563
58.54000000000089         0.6964518762057527
58.56000000000089         0.6856682663539866
58.58000000000089         0.6616992240014832
58.60000000000089         0.6199470903176499
58.620000000000886        0.5632186298698257
58.64000000000091         0.4994594275409532
58.66000000000092         0.4396137724285542
58.68000000000091         0.38879072145169624
58.70000000000091         0.34717093464420606
58.720000000000915        0.3133714838331461
58.74000000000093         0.2858822222103875
58.76000000000093         0.2634302244229855
58.780000000000946        0.2450017057325953
58.800000000000935        0.22982330087145003
58.82000000000093         0.2172979568962306
58.840000000000934        0.20696659812325682
58.86000000000094         0.19847566320453286
58.88000000000093         0.19155266716966385
58.90000000000095         0.18598808044330706
58.920000000000975        0.18162200190370434
58.94000000000096         0.17833443014303083
58.96000000000096         0.17603825683484606
58.98000000000096         0.17467437729784496
59.00000000000096         0.17420847544930143
59.02000000000096         0.17462919195715315
59.040000000000965        0.1759475947897226
59.060000000001           0.1781975263759569
59.08000000000097         0.18143771971111697
59.10000000000098         0.18575483459891223
59.12000000000099         0.191268359774368
59.14000000000098         0.1981375686378222
59.16000000000098         0.20657118268273778
59.18000000000099         0.21684064928338265
59.200000000001005        0.22929825388088762
59.220000000001           0.2444014850399398
59.240000000001           0.26274534545632444
59.26000000000101         0.28510378935875164
59.280000000001           0.3124779337667952
59.300000000001006        0.3461437774697704
59.320000000001           0.38760463642498877
59.340000000001005        0.4382364460040356
59.360000000000994        0.4978545644027608
59.380000000001004        0.5613558830382429
59.400000000000986        0.6178215351644731
59.42000000000099         0.659342339425547
59.44000000000097         0.6831317665610911
59.460000000000974        0.6937861912539647
59.48000000000097         0.696678437082244
59.50000000000098         0.6937047422761803
59.52000000000096         0.6829908022867777
59.540000000000965        0.659220507737486
59.56000000000099         0.6177259731462795
59.58000000000098         0.561050214438019
59.60000000000099         0.49752451222068395
59.62000000000099         0.4378893945780766
59.640000000000995        0.387242905514973
59.660000000000984        0.3457669225224427
59.680000000000994        0.312083582155703
59.70000000000101         0.28468805453723045
59.720000000001           0.2623086553844348
59.74000000000102         0.24394250910456844
59.760000000001           0.22881516221308973
59.780000000001           0.21633157630592512
59.800000000001           0.20603434805924203
59.82000000000101         0.19757124685615754
59.84000000000102         0.19067082491468101
59.86000000000101         0.18512462507848476
59.880000000001026        0.18077270205324103
59.90000000000103         0.17749591115260896
59.920000000001025        0.1752074829923077
59.94000000000104         0.17384855537478897
59.96000000000103         0.17338494763107518
59.98000000000103         0.17380534210336232
60.00000000000103         0.1751206971469311
60.02000000000105         0.17736483007938256
60.04000000000104         0.18059622574370116
60.06000000000105         0.18490122822161525
60.080000000001036        0.19039889239168703
60.10000000000104         0.19724792185412857
60.12000000000105         0.20565724313656858
60.14000000000105         0.21589591509800146
60.16000000000107         0.2283155886504136
60.180000000001044        0.24337208617123657
60.20000000000106         0.2616583019407894
60.220000000001065        0.283945499166758
60.240000000001054        0.31123136130039364
60.26000000000107         0.34477864297772975
60.28000000000106         0.3860778106992967
60.30000000000106         0.4364946223194861
60.32000000000107         0.49588655076597055
60.34000000000107         0.5592843903737994
60.36000000000106         0.6156996351933044
60.38000000000106         0.6569703818982361
60.40000000000104         0.6805593309604632
60.42000000000105         0.6911610018280218
60.44000000000104         0.6940391013940548
60.46000000000105         0.6910812616165054
60.48000000000104         0.6804207653630375
60.500000000001044        0.6567586954332377
60.52000000000103         0.6154335206057032
60.54000000000105         0.5589810746084212
60.56000000000106         0.495561700666419
60.58000000000104         0.43615600531019816
60.60000000000106         0.3857272899684013
60.62000000000107         0.34441532921510265
60.64000000000108         0.3108533335856158
60.66000000000109         0.28355054350374703
60.680000000001066        0.2612409327507707
60.70000000000108         0.2429341947191533
60.72000000000107         0.22785533338186784
60.740000000001075        0.21541141505996275
60.76000000000108         0.20514665951077618
60.78000000000108         0.19671008801454673
60.800000000001084        0.18983121800108155
60.82000000000108         0.18430205826140542
60.840000000001105        0.17996387467703864
60.860000000001094        0.17669753984386102
60.88000000000108         0.17441659300746776
60.90000000000109         0.17306238795004186
60.920000000001096        0.1726008955852161
60.94000000000109         0.1730208372776279
60.9600000000011          0.17433317624848232
60.980000000001134        0.1765716069446589
61.0000000000011          0.1797944087886879
61.02000000000112         0.18408762558410036
61.040000000001115        0.1895698994344667
61.06000000000112         0.19639938558946834
61.08000000000111         0.20478336743763673
61.10000000000112         0.2149914376721831
61.120000000001134        0.227373419576702
61.14000000000113         0.24238356802046204
61.16000000000113         0.26061285107526383
61.18000000000113         0.28283048718508663
61.200000000001125        0.31003258394460176
61.22000000000113         0.34347326605981393
61.24000000000114         0.38463910848458627
61.260000000001135        0.43489190431276536
61.28000000000113         0.4940883474597629
61.300000000001134        0.5572708070037389
61.320000000001116        0.613482003658524
61.340000000001126        0.6545947906580284
61.36000000000111         0.6780922653287406
61.380000000001104        0.6886343971178648
61.40000000000109         0.6915071087158343
61.42000000000111         0.688571655699141
61.4400000000011          0.6779502087720967
61.46000000000111         0.6543081973969143
61.48000000000111         0.613065148120726
61.50000000000112         0.5569913540629206
61.52000000000113         0.49378715102251625
61.540000000001115        0.43457554425706174
61.56000000000114         0.3843097543640458
61.58000000000113         0.34313064940064864
61.600000000001124        0.3096760385126441
61.62000000000113         0.2824600229296155
61.640000000001145        0.2602240369522044
61.66000000000115         0.2419738803724748
61.68000000000112         0.22694106842237952
61.70000000000114         0.2145348598948256
61.72000000000115         0.2043010480541405
61.740000000001146        0.19588982753253675
61.76000000000115         0.18903119397619808
61.780000000001145        0.18351880996343603
61.800000000001155        0.17919386521428599
61.82000000000115         0.1759376392998037
61.84000000000116         0.17366396438827564
61.860000000001165        0.17231438736094706
61.880000000001154        0.1718549857307842
61.90000000000117         0.17227456081617787
61.92000000000117         0.17358404318307383
61.94000000000119         0.17581705014327162
61.960000000001166        0.17903167943987547
61.98000000000118         0.18331369755902727
62.00000000000118         0.18878136738660134
62.020000000001176        0.19559234238799902
62.040000000001186        0.20395232438961572
62.06000000000119         0.21413149158707392
62.08000000000121         0.22647792125350016
62.100000000001195        0.24144443368692092
62.120000000001205        0.25962007817927774
62.1400000000012          0.2817715418511615
62.16000000000119         0.30889173178143337
62.18000000000121         0.3422397479520471
62.20000000000118         0.3833054317411051
62.2200000000012          0.4334517445882076
62.24000000000119         0.49249108071025266
62.26000000000122         0.5553511436988519
62.28000000000118         0.6112014391947371
62.3000000000012          0.6522399581678346
62.32000000000119         0.6757295740709152
62.34000000000117         0.686223936234529
62.36000000000118         0.6890839423410527
62.380000000001175        0.6861630519605825
62.400000000001164        0.6755904430988383
62.42000000000117         0.6520475009767316
62.44000000000117         0.6109595731888765
62.46000000000118         0.5550749859300446
62.48000000000119         0.49219526519905343