% Model:              Untitled.mph
% Version:            COMSOL 5.6.0.280
% Date:               Sep 14 2021, 17:12
% Dimension:          1
% Nodes:              961
% Expressions:        1
% Description:        线图
% cln2x                   Height
22.400000000000006        0.17276285770763433
22.41999999999998         0.1727456174647455
22.43999999999998         0.17364520773722525
22.459999999999983        0.17549011019458405
22.47999999999998         0.17833349695578388
22.49999999999998         0.18225625214708013
22.519999999999982        0.1873716305062419
22.539999999999978        0.19383197104139333
22.55999999999999         0.2018380869292505
22.57999999999999         0.21165217545869566
22.599999999999994        0.2236153913188606
22.619999999999994        0.23817156096288136
22.639999999999986        0.255898725441936
22.65999999999999         0.2775464826830676
22.67999999999999         0.3040984477449952
22.699999999999992        0.3367909455201155
22.72                     0.3770921239195627
22.74                     0.4263467535712144
22.759999999999994        0.48437057821031076
22.779999999999994        0.5461558478896478
22.799999999999986        0.6010242745068914
22.81999999999998         0.6413277048995994
22.839999999999982        0.6643754718346145
22.859999999999985        0.6747035832791192
22.87999999999999         0.6775464885625495
22.899999999999995        0.6747359954392325
22.91999999999999         0.6644504219803212
22.939999999999984        0.6414075934952028
22.95999999999998         0.6010873690460713
22.979999999999972        0.5461653347840355
22.99999999999996         0.4842864416147753
23.019999999999964        0.42613759291337877
23.039999999999957        0.37673737540282626
23.059999999999953        0.3362770669744916
23.07999999999995         0.303415460668972
23.09999999999996         0.2766857863686234
23.119999999999955        0.2548485616521901
23.139999999999954        0.23692644426365564
23.159999999999958        0.22216478500538622
23.179999999999957        0.2099838082718896
23.19999999999996         0.19993786192987334
23.219999999999967        0.1916843728414329
23.23999999999996         0.18495738507129655
23.25999999999996         0.17955440232751488
23.279999999999966        0.17532021597317907
23.29999999999996         0.17213837814165284
23.31999999999996         0.16992440931846914
23.33999999999996         0.16862105189314186
23.359999999999967        0.16819514858269843
23.379999999999967        0.1686358725379528
23.39999999999997         0.16995414744292883
23.41999999999997         0.17218320449533916
23.43999999999997         0.1753803636889723
23.45999999999997         0.17963018503022482
23.47999999999997         0.18504963522322118
23.49999999999997         0.19179343820820788
23.519999999999975        0.20006546754209273
23.53999999999998         0.2101305182556918
23.559999999999974        0.22233220097664474
23.579999999999977        0.23711670886854977
23.599999999999984        0.2550643835459587
23.619999999999983        0.2769302096785796
23.639999999999986        0.3036910500805931
23.659999999999982        0.3365837865788941
23.679999999999982        0.37706902475186366
23.69999999999998         0.4264852240803417
23.719999999999978        0.48468702079833953
23.73999999999998         0.5467774852514963
23.759999999999984        0.6017903436211035
23.77999999999998         0.6422041274377788
23.79999999999998         0.6653182036932501
23.81999999999998         0.6756787858618085
23.83999999999998         0.6785335982026126
23.85999999999998         0.6757212541352405
23.879999999999974        0.6654191875979046
23.899999999999974        0.6424294193983684
23.919999999999963        0.6021312395081353
23.93999999999996         0.546971836038678
23.959999999999958        0.4848961856229392
23.979999999999954        0.4267030877005448
23.999999999999947        0.37729280137759263
24.019999999999946        0.336812935859388
24.039999999999942        0.30392555397519255
24.059999999999945        0.2771695049947251
24.079999999999938        0.2553123590436119
24.09999999999994         0.23737538838169317
24.11999999999994         0.22260288227986016
24.139999999999947        0.21041425896886878
24.159999999999958        0.20036325912686803
24.17999999999995         0.19210623687429504
24.199999999999953        0.1853783458890242
24.219999999999953        0.17997594685235496
24.23999999999995         0.1757436712299458
24.259999999999952        0.17256496648415598
24.27999999999995         0.17035529512090666
24.299999999999955        0.16905741550810183
24.319999999999965        0.16863809458227733
24.33999999999996         0.1690866278354919
24.359999999999957        0.17041403933985147
24.379999999999963        0.17265372147716773
24.399999999999963        0.1758632035153369
24.41999999999996         0.1801273027723422
24.43999999999996         0.1855629053272496
24.459999999999965        0.19232577828832237
24.47999999999997         0.20062003888831706
24.499999999999964        0.21071114428997684
24.519999999999964        0.2229435671352273
24.539999999999967        0.23776465560885202
24.559999999999963        0.2557563857261856
24.579999999999966        0.2776794848231612
24.599999999999966        0.3045061136802362
24.61999999999997         0.33747944479624825
24.639999999999972        0.3780636378217923
24.659999999999975        0.42760047128166334
24.67999999999997         0.4859450493945775
24.699999999999967        0.5481919019913587
24.71999999999997         0.6035228939278963
24.739999999999974        0.6439694219254417
24.759999999999973        0.667071723901882
24.77999999999997         0.6774546475423084
24.799999999999972        0.6803261243086733
24.819999999999986        0.6775115160386954
24.83999999999997         0.6671643188104261
24.85999999999996         0.6441121234318927
24.879999999999953        0.6037023858195498
24.899999999999945        0.5483981156953441
24.91999999999994         0.4861688036071651
24.939999999999934        0.42783586747554436
24.959999999999937        0.37830809575052554
24.979999999999933        0.33773260125210647
24.999999999999925        0.30476880374144466
25.019999999999936        0.2779531101529285
25.039999999999942        0.2560457741521943
25.059999999999935        0.23806747066279776
25.079999999999938        0.22326123225448463
25.099999999999934        0.2110451925123869
25.119999999999937        0.2009710710007912
25.139999999999937        0.19269648465766817
25.15999999999994         0.18595461506457098
25.179999999999936        0.18054131209135318
25.199999999999942        0.17630080225288988
25.219999999999946        0.173116233629352
25.239999999999945        0.1709028575376758
25.259999999999945        0.1696032602007688
25.27999999999994         0.16918422716823295
25.299999999999944        0.1696349662574518
25.319999999999947        0.17096653598671546
25.339999999999943        0.1732124304756198
25.359999999999943        0.17643036791426073
25.379999999999953        0.1807054305007787
25.39999999999994         0.1861544262647203
25.41999999999995         0.19293417729800263
25.439999999999948        0.2012490720699059
25.459999999999948        0.2113652784457379
25.47999999999995         0.2236281892702696
25.499999999999954        0.2384863365491171
25.51999999999995         0.25652323362507673
25.53999999999996         0.2784984099510627
25.55999999999996         0.3053955859000957
25.579999999999956        0.33846246480247816
25.599999999999955        0.37917586945003007
25.619999999999955        0.42888726023911433
25.639999999999954        0.48740936434127174
25.659999999999954        0.5497053256297756
25.679999999999964        0.6052040955015215
25.699999999999957        0.645773999009609
25.719999999999963        0.6689542717204718
25.739999999999956        0.6793756570537651
25.759999999999955        0.6822590783338676
25.77999999999996         0.6794355609432555
25.79999999999995         0.6690526889243927
25.819999999999954        0.6458348453191698
25.839999999999947        0.6052227424913685
25.85999999999994         0.5499239027360512
25.879999999999924        0.48764714007047927
25.899999999999924        0.4291378916776811
25.919999999999913        0.37943664182940684
25.939999999999927        0.3387241772484411
25.959999999999916        0.3056775230899207
25.97999999999992         0.2787949575943115
25.99999999999992         0.25683352973369744
26.01999999999992         0.238811355730599
26.03999999999992         0.22396945673951876
26.059999999999917        0.21172440235900145
26.07999999999992         0.20162762107076887
26.099999999999923        0.19333366842418442
26.11999999999992         0.18657633964761758
26.13999999999992         0.1811509452416219
26.159999999999922        0.17690127559299498
26.179999999999918        0.17371013190035534
26.19999999999992         0.17149251712782276
26.219999999999928        0.1701908217870314
26.239999999999924        0.16977183770830007
26.259999999999934        0.17022468055318854
26.279999999999934        0.17156044593671552
26.299999999999926        0.17381272535111636
26.31999999999993         0.1770394005163632
26.33999999999993         0.18132579995339174
26.35999999999993         0.18678949160120165
26.37999999999993         0.19358713422412424
26.399999999999935        0.20192400188192933
26.41999999999993         0.2120670426239435
26.43999999999994         0.22436263748185528
26.45999999999994         0.2392605542364917
26.479999999999936        0.25734577745158826
26.499999999999936        0.27937610426916465
26.51999999999994         0.306345156194562
26.539999999999935        0.33950079936721517
26.55999999999994         0.38032385153665393
26.579999999999938        0.4301695357698373
26.599999999999945        0.48885137046631594
26.61999999999994         0.5513238891969293
26.639999999999944        0.6068206173401856
26.659999999999943        0.647604375448614
26.67999999999994         0.6709530321640977
26.699999999999946        0.6814292172835261
26.719999999999942        0.6843198973173542
26.73999999999994         0.6814811800230897
26.759999999999945        0.671073378085774
26.77999999999994         0.6477686946726244
26.799999999999933        0.6070278105586088
26.81999999999992         0.5515626170198769
26.839999999999907        0.4891098932490651
26.859999999999904        0.43044060743412427
26.879999999999903        0.3806048884300423
26.899999999999903        0.33979182517376677
26.9199999999999          0.306647352284328
26.939999999999902        0.2796910986447711
26.959999999999905        0.2576720956492696
26.979999999999905        0.23960390709808352
26.99999999999991         0.22472478946124227
27.0199999999999          0.21244947299736824
27.039999999999907        0.20232899984229535
27.059999999999906        0.1940148109563406
27.079999999999906        0.18724127774999128
27.09999999999991         0.1818031392965082
27.119999999999916        0.17754377822053902
27.13999999999991         0.17434567856874683
27.159999999999915        0.1721235869981255
27.17999999999991         0.17081975062780452
27.19999999999991         0.1704007673278962
27.21999999999991         0.17085579134430365
27.239999999999917        0.1721959536283358
27.25999999999992         0.17445494736066586
27.279999999999916        0.17769082671369407
27.299999999999923        0.18198917211221785
27.319999999999933        0.18746830965434308
27.33999999999992         0.19428473260922857
27.35999999999992         0.20264461452644558
27.379999999999924        0.21281571661955992
27.39999999999993         0.22514547485930422
27.419999999999927        0.24008502601883402
27.43999999999993         0.25822113275283953
27.45999999999993         0.28031713395534363
27.479999999999936        0.3073606322648184
27.49999999999994         0.34060195253241804
27.519999999999932        0.38151741115003107
27.53999999999993         0.43146022000325807
27.55999999999993         0.49028761571314394
27.579999999999934        0.5530576900029237
27.599999999999934        0.6087324903680501
27.619999999999933        0.6496544769850665
27.639999999999933        0.6730899193815286
27.65999999999994         0.6836085222210917
27.679999999999936        0.6865120661669772
27.699999999999942        0.6836628671151853
27.719999999999935        0.6732144452833317
27.739999999999927        0.6499146018130153
27.75999999999992         0.6091174529660226
27.779999999999912        0.553312439653862
27.799999999999905        0.4905550910062652
27.819999999999908        0.43174280413429156
27.839999999999904        0.3818123078286542
27.85999999999991         0.34091774918443735
27.879999999999903        0.30767979187217465
27.899999999999903        0.28064821759269665
27.919999999999913        0.2585683268575509
27.939999999999905        0.2404507419522079
27.959999999999905        0.2255314768132878
27.97999999999991         0.21322351968955958
27.999999999999908        0.20307563063915576
28.01999999999991         0.19474033748307887
28.039999999999914        0.18794988274309127
28.05999999999991         0.1824984033982867
28.07999999999991         0.1782288327244873
28.099999999999913        0.17502334566050515
28.119999999999916        0.17279647499883738
28.139999999999915        0.17149033361386998
28.159999999999926        0.1710713135935582
28.17999999999993         0.17152860261626662
28.199999999999932        0.17287336974475473
28.219999999999924        0.17513941930587365
28.239999999999924        0.17838499393241566
28.259999999999927        0.18269594949199183
28.27999999999993         0.18819057642500853
28.299999999999926        0.1950264928238632
28.31999999999993         0.2034102278019399
28.339999999999932        0.213610363654859
28.35999999999994         0.2259754163709615
28.379999999999928        0.24095797539137853
28.399999999999935        0.25915011001591554
28.41999999999993         0.28131163922212143
28.439999999999937        0.3084358676286909
28.45999999999994         0.3417769892302491
28.47999999999994         0.38281583572057293
28.499999999999936        0.432909869536245
28.519999999999943        0.4919172180109235
28.539999999999935        0.5548951601414865
28.559999999999935        0.6109224390783731
28.579999999999927        0.6519121659415821
28.59999999999993         0.6753583455480662
28.619999999999923        0.6859110035229705
28.639999999999922        0.6888350657666737
28.65999999999993         0.685980925517569
28.679999999999925        0.6754828524964394
28.69999999999994         0.6520914733628557
28.719999999999924        0.6111481271417593
28.739999999999917        0.5551548939020502
28.7599999999999          0.49219989177325757
28.779999999999905        0.4332085304072005
28.799999999999905        0.3831276486064599
28.819999999999897        0.3421017370244571
28.839999999999904        0.308774622443618
28.859999999999896        0.2816660022708296
28.8799999999999          0.2595218277535826
28.899999999999906        0.24135140367645938
28.91999999999991         0.2263889662148336
28.939999999999905        0.21404586090447436
28.95999999999991         0.20386852585023926
28.979999999999905        0.1955105088787519
28.9999999999999          0.18870184180847804
29.019999999999907        0.18323599737623214
29.039999999999907        0.1789553995318481
29.05999999999992         0.17574184291049794
29.07999999999992         0.17350960274193555
29.099999999999913        0.17220061045742718
29.119999999999912        0.1717812676900604
29.139999999999915        0.1722406543615335
29.159999999999915        0.17358997229197365
29.179999999999914        0.17586314044079288
29.199999999999918        0.17911860213726905
29.21999999999992         0.18344223455194172
29.239999999999927        0.1889531458477291
29.259999999999916        0.19580929849047335
29.279999999999923        0.20421790726667743
29.299999999999923        0.21444844577013958
29.319999999999915        0.22685058556727317
29.339999999999925        0.24187841426455378
29.359999999999935        0.26012267372501596
29.379999999999935        0.28235226157865295
29.399999999999935        0.3095629333758267
29.419999999999934        0.34301748668729753
29.439999999999934        0.384210409491995
29.45999999999993         0.4345098058901535
29.479999999999933        0.4937315867927732
29.499999999999932        0.5568076997429615
29.519999999999936        0.613033499953378
29.53999999999994         0.6541787122175048
29.55999999999995         0.6777238183230377
29.57999999999994         0.6883253275493822
29.599999999999948        0.6912642237734584
29.61999999999994         0.6883980038678162
29.63999999999994         0.6778466070314546
29.659999999999933        0.6542735360054311
29.679999999999925        0.6130954551932474
29.69999999999992         0.5570687700937321
29.71999999999991         0.49402600108045985
29.7399999999999          0.4348217936865147
29.759999999999906        0.38453689745006064
29.77999999999991         0.3433492577969293
29.7999999999999          0.309919640777016
29.8199999999999          0.2827284359428012
29.839999999999904        0.26051757558588284
29.859999999999907        0.2422931181366637
29.879999999999903        0.22728673786327386
29.899999999999903        0.2149078393730295
29.91999999999991         0.20470233663965287
29.939999999999912        0.19632049630418308
29.959999999999912        0.1894927825993824
29.979999999999908        0.18401195332524165
29.999999999999908        0.1797198850188734
30.019999999999914        0.17649796024951722
30.039999999999907        0.17426008301462165
30.059999999999913        0.1729481637345193
30.07999999999991         0.1725283989593139
30.09999999999991         0.1729898661359262
30.119999999999926        0.17434381275075572
30.13999999999992         0.17662426418230437
30.159999999999915        0.17988985702362442
30.17999999999992         0.1842270366815839
30.199999999999918        0.18975490938947714
30.21999999999992         0.19663218179814523
30.239999999999924        0.20506680970660157
30.259999999999923        0.215329226788154
30.279999999999937        0.22777033305415856
30.299999999999926        0.2428457550393204
30.319999999999926        0.2611447907338588
30.339999999999932        0.28344490484250445
30.35999999999993         0.3107425825095248
30.379999999999928        0.3443048138541117
30.399999999999928        0.3856309773001237
30.41999999999993         0.4360938095200148
30.439999999999937        0.49551029230191457
30.459999999999933        0.5587935579141409
30.479999999999933        0.6150632097761857
30.499999999999936        0.6564522293788841
30.51999999999994         0.6801862616124439
30.539999999999935        0.6908525162925633
30.559999999999935        0.6938011633555377
30.579999999999938        0.6909164931106206
30.59999999999993         0.680329949363195
30.619999999999937        0.656649016439099
30.639999999999926        0.6153109294428716
30.65999999999992         0.5590792737559803
30.679999999999907        0.49582167836516533
30.699999999999907        0.43642301935748407
30.719999999999906        0.3859749660041388
30.739999999999903        0.34466352050041477
30.759999999999902        0.31111730887104344
30.779999999999905        0.2838374698538779
30.799999999999905        0.26155713621290344
30.81999999999991         0.24327714378323373
30.83999999999991         0.22822586455952154
30.859999999999907        0.21581179197792164
30.879999999999907        0.20557610506712728
30.89999999999991         0.19716984090779147
30.919999999999906        0.1903225627660513
30.939999999999916        0.1848263201998569
30.959999999999912        0.1805224432053558
30.979999999999915        0.17729190276943754
30.999999999999915        0.17504837390746045
31.01999999999992         0.17373338448834996
31.03999999999992         0.17331312349957878
31.059999999999917        0.17377663226854942
31.079999999999917        0.17513522107665705
31.099999999999923        0.17742305523528404
31.11999999999992         0.18069897207940497
31.13999999999993         0.18504998035277342
31.15999999999993         0.1905951795820712
31.179999999999925        0.1974940204706085
31.19999999999993         0.20595520125519484
31.21999999999993         0.21625012192118626
31.23999999999993         0.22873093574069586
31.259999999999934        0.24385489400286503
31.279999999999934        0.262216687236138
31.299999999999926        0.2845899139890223
31.319999999999933        0.31197533975618175
31.339999999999936        0.345639746178503
31.359999999999935        0.3870786402221201
31.379999999999928        0.43766337437648617
31.399999999999935        0.49725529531767726
31.41999999999995         0.5608729298255002
31.43999999999994         0.6173578677659383
31.459999999999948        0.658916278113644
31.479999999999933        0.6827588913003086
31.499999999999932        0.6934788406646197
31.51999999999993         0.6964437041057736
31.539999999999928        0.693545736572239
31.559999999999942        0.6829083135656814
31.579999999999934        0.659213069699507
31.599999999999934        0.6177881839053952
31.61999999999992         0.5611782858028954
31.63999999999992         0.49757957735195124
31.65999999999992         0.43800681916639156
31.679999999999918        0.3874729734501822
31.69999999999991         0.3460242092830908
31.719999999999906        0.31236738801337677
31.739999999999906        0.2849985505883965
31.75999999999989         0.2626464558694462
31.779999999999927        0.24430844141884756
31.799999999999912        0.22921014685939994
31.81999999999991         0.2167565733055557
31.83999999999991         0.20649035399487922
31.859999999999904        0.19805933926143912
31.879999999999914        0.19119219962715678
31.899999999999913        0.18568030616352252
31.919999999999913        0.18136445596951736
31.93999999999992         0.178125212803694
31.959999999999933        0.17587602593294646
31.979999999999926        0.17455804423066812
31.999999999999925        0.17413745594030064
32.01999999999992         0.17460326306316842
32.03999999999993         0.17596681718097587
32.05999999999992         0.17826241895234235
32.07999999999992         0.18154914847618017
32.09999999999993         0.18591407834973261
32.119999999999926        0.19147716017188454
32.13999999999993         0.19839822777987234
32.159999999999926        0.2068867224210581
32.17999999999993         0.21721501783788288
32.19999999999993         0.22973654787369835
32.21999999999992         0.24491027774943117
32.23999999999993         0.2633365760051281
32.259999999999934        0.28578590047626995
32.27999999999994         0.3132652935788269
32.29999999999994         0.34704608232418965
32.319999999999936        0.3886290854726387
32.33999999999993         0.4393907093648391
32.35999999999994         0.49919354507520497
32.37999999999994         0.5630531563154155
32.39999999999993         0.6199276344682436
32.41999999999994         0.6615831022831862
32.439999999999934        0.6854547443684211
32.45999999999994         0.6962180574381661
32.47999999999993         0.6992061664176981
32.499999999999936        0.6963004010894397
32.51999999999994         0.6856033028282159
32.53999999999993         0.6617970033222054
32.55999999999993         0.6201969545153999
32.57999999999991         0.5633635098775711
32.59999999999991         0.49953240321620984
32.619999999999905        0.4397502913715445
32.639999999999915        0.38900626917071063
32.65999999999989         0.34744078584526683
32.67999999999991         0.3136789162679623
32.6999999999999          0.28622040745801525
32.7199999999999          0.2637940637332132
32.7399999999999          0.24539542388906488
32.759999999999906        0.23024792425058996
32.77999999999991         0.2177531785219603
32.799999999999905        0.20745527956289572
32.819999999999915        0.19899877019175854
32.83999999999991         0.19211126758702074
32.859999999999914        0.1865833969903974
32.87999999999991         0.18225540965799913
32.89999999999991         0.17900744828181053
32.919999999999916        0.1767525784332131
32.939999999999905        0.17543191560441646
32.959999999999916        0.17501141473162357
32.97999999999992         0.17548004924708432
32.999999999999915        0.17684922614984327
33.01999999999991         0.17915338819155538
33.03999999999992         0.18245185456267857
33.05999999999992         0.18683178069466805
33.07999999999992         0.192414034405831
33.099999999999916        0.1993589090915784
33.119999999999926        0.2078766653237502
33.13999999999994         0.21824073762739185
33.159999999999926        0.23080593926703857
33.17999999999993         0.24603302651491232
33.199999999999925        0.26452138822634147
33.219999999999935        0.28705110986533894
33.23999999999993         0.31463229315451446
33.259999999999934        0.34854567243168244
33.27999999999994         0.3903067191736299
33.29999999999994         0.4413034846169401
33.31999999999994         0.5013566032795945
33.33999999999994         0.5653529395174044
33.35999999999994         0.6224662309999761
33.37999999999995         0.6643100013681482
33.39999999999994         0.688302467675695
33.41999999999995         0.6991255873949973
33.43999999999995         0.7021314862451951
33.459999999999965        0.699210094607394
33.47999999999994         0.6884475927392419
33.499999999999936        0.6644356149740291
33.519999999999925        0.6225680326805726
33.53999999999993         0.565662676486632
33.55999999999991         0.5017051908129032
33.57999999999991         0.4416761523859129
33.59999999999991         0.3906650833210277
33.619999999999905        0.34895034241551753
33.63999999999991         0.315068299264632
33.6599999999999          0.2875131757935573
33.6799999999999          0.2650090345351241
33.699999999999896        0.2465476030633769
33.71999999999991         0.23134933449218564
33.7399999999999          0.2188148975574156
33.75999999999991         0.20848344661422205
33.77999999999991         0.2000000579607381
33.799999999999905        0.1930912137039792
33.819999999999915        0.1875466356966463
33.83999999999991         0.1832059338860472
33.85999999999993         0.17994881722670453
33.87999999999992         0.17768796425188035
33.89999999999991         0.1763644487298529
33.919999999999916        0.1759439823886931
33.93999999999992         0.176415504785103
33.95999999999992         0.1777904781676929
33.97999999999992         0.18010349289920194
33.99999999999992         0.1834141157442447
34.019999999999925        0.187810139345169
34.03999999999992         0.19341251456741884
34.05999999999992         0.20038240040323888
34.07999999999993         0.20893096256087187
34.09999999999992         0.21933280365011543
34.119999999999926        0.23194422304768722
34.13999999999992         0.2472278444853214
34.159999999999926        0.2657820016596453
34.17999999999994         0.28839595382868954
34.19999999999993         0.31608120331795797
34.219999999999935        0.35012356509470677
34.23999999999994         0.3920444585015934
34.259999999999934        0.443237586513912
34.27999999999994         0.5035250649642546
34.29999999999994         0.5677747663531109
34.31999999999994         0.6249748628114723
34.33999999999995         0.667098001764945
34.35999999999994         0.6913044495533374
34.379999999999946        0.7022047751915839
34.39999999999995         0.7052239463417758
34.419999999999945        0.7022810253373595
34.43999999999994         0.6914654835760206
34.45999999999994         0.6673298971661551
34.47999999999992         0.6252677033169749
34.49999999999992         0.56811423640978
34.51999999999991         0.5038980686203267
34.5399999999999          0.44363594003592355
34.55999999999991         0.392465103298993
34.579999999999906        0.35056668163786026
34.59999999999989         0.3165484600160819
34.619999999999905        0.28888954847626613
34.6399999999999          0.2663042330060222
34.6599999999999          0.2477782799732751
34.679999999999914        0.2325282962485601
34.69999999999991         0.2199536679686207
34.71999999999993         0.20958845233813314
34.73999999999991         0.20107821670379072
34.75999999999991         0.19414831443478522
34.779999999999916        0.1885875798696976
34.79999999999991         0.18423490632833045
34.81999999999991         0.18096947528640153
34.83999999999991         0.17870371589445277
34.85999999999992         0.1773783301772347
34.87999999999992         0.17695903616064695
34.899999999999935        0.17743474611160007
34.91999999999993         0.178816987474071
34.93999999999992         0.181140514116155
34.95999999999993         0.18446516362862447
34.979999999999926        0.18887939872794512
34.99999999999993         0.19450429177460185
35.019999999999925        0.20150191182867078
35.03999999999993         0.21008437707699387
35.05999999999992         0.22052752734270867
35.07999999999993         0.23318926643441235
35.09999999999993         0.24853429272742897
35.11999999999993         0.26716694188564516
35.13999999999993         0.28987327816207953
35.15999999999993         0.3176700397186075
35.179999999999936        0.35184397583495763
35.199999999999925        0.39391392862224966
35.219999999999956        0.4452734179183231
35.23999999999993         0.5059011841280435
35.259999999999934        0.5704362945665356
35.279999999999944        0.6279124225185343
35.29999999999994         0.6702541099739336
35.31999999999995         0.6946018919093698
35.33999999999995         0.7055724412281452
35.35999999999995         0.7086127748799442
35.379999999999946        0.7056524297624885
35.39999999999995         0.6947777665270471
35.41999999999993         0.6705910822091683
35.439999999999934        0.628394395644388
35.459999999999916        0.5708028831359817
35.47999999999991         0.5061879562447488