% Model:              Untitled.mph
% Version:            COMSOL 5.6.0.280
% Date:               Sep 14 2021, 17:11
% Dimension:          1
% Nodes:              1301
% Expressions:        1
% Description:        线图
% cln2x                   Height
15.600000000000001        0.11730701668268716
15.619999999999978        0.11763453718475197
15.63999999999997         0.1186024513505026
15.659999999999972        0.12023465564127471
15.679999999999982        0.1225723349180995
15.699999999999985        0.12567620229444068
15.719999999999985        0.12962990062146545
15.739999999999979        0.13454486547171166
15.759999999999982        0.1405670845125795
15.779999999999982        0.1478863609951273
15.799999999999981        0.1567488998073286
15.81999999999999         0.16747425368723637
15.839999999999993        0.18048014990958114
15.859999999999996        0.1963015552732662
15.879999999999985        0.21563607388334716
15.89999999999998         0.2393599567773469
15.919999999999982        0.268499208824441
15.939999999999996        0.30398838391722666
15.959999999999988        0.34579648005996566
15.979999999999993        0.39087150136012094
15.999999999999979        0.4315227197015824
16.01999999999998         0.45993746399231666
16.03999999999998         0.47581798067054143
16.059999999999974        0.4835231551362839
16.079999999999977        0.4868718326287097
16.099999999999984        0.48781739309292016
16.119999999999987        0.4869116362885222
16.139999999999986        0.4836023847290741
16.159999999999982        0.4759353854492162
16.17999999999997         0.4600897263384434
16.199999999999967        0.43170263002298787
16.21999999999996         0.3910684006412509
16.23999999999996         0.34600168694856626
16.259999999999952        0.30419805776631825
16.27999999999995         0.2687129187475151
16.29999999999994         0.23957884597182807
16.31999999999994         0.21586185955218196
16.33999999999995         0.19653612052897682
16.35999999999995         0.18072534644069888
16.379999999999942        0.16773182473034298
16.399999999999945        0.15702052181070147
16.419999999999952        0.14817363524744848
16.43999999999995         0.14087158469299296
16.45999999999995         0.1348681512665886
16.479999999999958        0.1299734922451111
16.499999999999957        0.126041588226635
16.519999999999953        0.12296100834301217
16.53999999999995         0.1206481824249793
16.559999999999953        0.11904252351131704
16.57999999999996         0.11810301611316473
16.59999999999996         0.11780597652717106
16.61999999999996         0.11814378565082553
16.639999999999958        0.11912448350991818
16.659999999999947        0.12077210563548976
16.679999999999957        0.12312825560367366
16.699999999999964        0.12625397766136237
16.719999999999963        0.13023340199953803
16.73999999999996         0.1351785845228154
16.759999999999966        0.1412363016042308
16.779999999999955        0.1485973612887321
16.79999999999996         0.1575092534955373
16.819999999999958        0.1682931820389021
16.839999999999968        0.18136662203541618
16.85999999999997         0.19727207460847976
16.879999999999967        0.21671010162332
16.899999999999967        0.24056469844677145
16.919999999999963        0.2698484680810891
16.93999999999997         0.3055205149412598
16.959999999999965        0.34754315311057793
16.979999999999972        0.3928489097113515
16.999999999999975        0.43370820367818513
17.01999999999997         0.46226878553406386
17.039999999999967        0.47823114405234846
17.05999999999997         0.4859762198665566
17.079999999999966        0.4893423919918713
17.099999999999966        0.49029312072225123
17.11999999999997         0.48938513703330433
17.139999999999965        0.4860612244220947
17.15999999999996         0.47834488578147494
17.179999999999968        0.4623569212468954
17.199999999999957        0.43389384597022984
17.21999999999995         0.3930538260538402
17.23999999999994         0.3477592603056625
17.259999999999945        0.30574448587616077
17.279999999999934        0.2700802645754373
17.299999999999933        0.24079931587724904
17.31999999999993         0.21696294267775637
17.33999999999993         0.19754011448778286
17.359999999999932        0.18165011079056437
17.379999999999935        0.1685935988714826
17.399999999999935        0.15782845862278558
17.419999999999938        0.1489373008370989
17.439999999999934        0.14159893664079415
17.459999999999933        0.13556589860348436
17.47999999999994         0.13064709120857115
17.499999999999936        0.12669648879491632
17.519999999999936        0.12360163162584868
17.53999999999993         0.12127851326630823
17.559999999999942        0.11966623936340524
17.579999999999934        0.11872359517870477
17.599999999999945        0.11842679038544274
17.61999999999994         0.11876818417971574
17.63999999999994         0.11975587777083115
17.659999999999936        0.12141413811574914
17.679999999999932        0.12378468834821688
17.69999999999995         0.1269289751326797
17.719999999999953        0.1309316094278563
17.739999999999945        0.1359048230053726
17.759999999999945        0.1419969251887206
17.779999999999944        0.14939946535458032
17.79999999999994         0.1583612936779845
17.81999999999994         0.16920537726098048
17.839999999999943        0.18235148126144338
17.859999999999943        0.19834508137436832
17.87999999999995         0.2178905799576482
17.899999999999952        0.24187681464660848
17.919999999999956        0.2713471109335011
17.939999999999948        0.3072501593679487
17.959999999999955        0.34952180543463507
17.979999999999947        0.3949864877754118
17.99999999999996         0.4359519825651591
18.019999999999957        0.46480306802033644
18.039999999999953        0.4808551034647308
18.059999999999956        0.4886444924178174
18.07999999999995         0.4920306901209104
18.099999999999955        0.492988019122925
18.11999999999995         0.49207629749065945
18.13999999999995         0.4887352064560003
18.15999999999995         0.480977278151632
18.179999999999943        0.46490191586338964
18.199999999999935        0.43615059958734387
18.219999999999928        0.3952063370769553
18.239999999999917        0.3497542381302532
18.259999999999916        0.30749147213573
18.279999999999923        0.27159729017044865
18.29999999999992         0.24213095652948857
18.319999999999915        0.2181643831229778
18.33999999999991         0.19863565993656196
18.359999999999914        0.1826592337349936
18.379999999999924        0.16953191916648253
18.399999999999917        0.15870859847176122
18.419999999999913        0.14976957822388656
18.43999999999991         0.14239189518790632
18.459999999999923        0.13632671834150062
18.479999999999922        0.13138225092802844
18.499999999999915        0.12741099490116858
18.519999999999918        0.12430036320987382
18.539999999999914        0.12196587338877868
18.559999999999917        0.1203462126444759
18.579999999999917        0.11940006036820985
18.599999999999916        0.11910341624176066
18.619999999999926        0.11944861319115109
18.639999999999926        0.12044381756146028
18.65999999999992         0.12211345496931428
18.67999999999992         0.12449950846908725
18.69999999999993         0.12766379954539842
18.719999999999928        0.13169144947409722
18.739999999999927        0.1366958258990865
18.759999999999927        0.14282541633580664
18.779999999999937        0.15027324475477777
18.79999999999993         0.15928965834088615
18.819999999999922        0.17019952612062392
18.83999999999993         0.18342254962731244
18.859999999999932        0.1995118323912847
18.87999999999993         0.21917401521694976
18.899999999999938        0.2433031984158762
18.919999999999934        0.27294886027433496
18.93999999999993         0.30906530217842365
18.95999999999994         0.35158806075048893
18.979999999999933        0.39732308210695994
18.999999999999936        0.43853301648223453
19.01999999999994         0.4674888140024051
19.039999999999935        0.48370072475138326
19.05999999999994         0.49154893907672365
19.079999999999934        0.4949550607082124
19.099999999999937        0.49591756785397695
19.119999999999944        0.4950019212705431
19.139999999999937        0.49164225647245924
19.159999999999936        0.4838391955143972
19.179999999999932        0.46766887164171184
19.19999999999992         0.43874708630981235
19.219999999999914        0.39756014687438646
19.239999999999903        0.3518388315265329
19.259999999999906        0.3093258243543473
19.279999999999898        0.2732191718716277
19.299999999999898        0.24358504928720182
19.3199999999999          0.21946972171525794
19.339999999999907        0.19982385483425308
19.359999999999896        0.1837533139770589
19.3799999999999          0.17055133809231965
19.399999999999903        0.15966466468148086
19.419999999999895        0.15067352086459002
19.4399999999999          0.14325301447572494
19.459999999999905        0.1371528267983229
19.4799999999999          0.13218001234735233
19.4999999999999          0.12818621474543515
19.51999999999991         0.12505824264653548
19.53999999999991         0.12271116538978356
19.559999999999906        0.1210833776594518
19.57999999999991         0.12013315767174108
19.59999999999991         0.11983643461601938
19.61999999999991         0.12018549855206007
19.639999999999908        0.1211885770171998
19.659999999999915        0.12287034525595633
19.679999999999918        0.12527293714676876
19.699999999999914        0.12845862703185126
19.719999999999914        0.1325130854813449
19.739999999999917        0.13755040741479463
19.759999999999913        0.1437200293598172
19.77999999999991         0.15121620597919966
19.799999999999915        0.1602908782169956
19.819999999999908        0.17127098130539462
19.83999999999992         0.18458132250490414
19.85999999999992         0.20077362861958042
19.879999999999924        0.22055962709604243
19.899999999999924        0.24483571666982898
19.919999999999916        0.2746514003973032
19.939999999999912        0.3110232894979909
19.95999999999992         0.35381668147819223
19.97999999999993         0.3998430834252026
19.999999999999925        0.4413164801559008
20.01999999999993         0.4704587003350001
20.03999999999993         0.4867761569245194
20.059999999999924        0.4946764280392287
20.079999999999924        0.49810604846653944
20.09999999999992         0.49907630331789543
20.119999999999923        0.4981541207211203
20.139999999999922        0.4947723208895396
20.15999999999992         0.48693113382293574
20.179999999999914        0.47072117994739054
20.19999999999991         0.4415461187871232
20.219999999999906        0.40009745706023375
20.23999999999989         0.3540858267739421
20.259999999999888        0.31130297113411615
20.279999999999887        0.2749671932529995
20.299999999999883        0.24514510368471687
20.319999999999883        0.2208769292580244
20.33999999999988         0.20110668214043692
20.35999999999988         0.1849345695027859
20.379999999999885        0.1716474021208595
20.399999999999896        0.1606928439205496
20.41999999999988         0.1516458475153313
20.439999999999888        0.14417941647065455
20.459999999999887        0.13804164864964966
20.47999999999989         0.13303870562525585
20.499999999999886        0.12902055529514475
20.51999999999989         0.12587375612460727
20.539999999999893        0.12351287864289151
20.559999999999903        0.12187598777169975
20.5799999999999          0.12092114037919639
20.599999999999895        0.12062411353363015
20.619999999999894        0.12097713233166765
20.639999999999894        0.1219884783494934
20.659999999999897        0.12368291372496955
20.679999999999904        0.12610298856139437
20.699999999999903        0.1293113484140051
20.719999999999914        0.13339423938498432
20.739999999999906        0.13846651850061223
20.7599999999999          0.1446793088425442
20.779999999999912        0.15222708980804017
20.79999999999991         0.16136397640186517
20.819999999999904        0.1724191148251163
20.839999999999907        0.18582018390963145
20.859999999999904        0.20212263913980938
20.879999999999907        0.22204301424966247
20.899999999999917        0.24648374086818725
20.919999999999913        0.27650137006577497
20.93999999999991         0.3130583164630743
20.95999999999991         0.3561228739285417
20.9799999999999          0.4025529580738174
20.999999999999904        0.44442971506785595
21.0199999999999          0.4736371088852547
21.039999999999903        0.49006739522672793
21.059999999999892        0.4980232313035299
21.079999999999902        0.5014778375155091
21.0999999999999          0.5024562127923069
21.119999999999898        0.5015291604905667
21.1399999999999          0.4981256072129029
21.1599999999999          0.4902321083303572
21.17999999999989         0.4739127250295431
21.199999999999886        0.4446749376271326
21.219999999999885        0.4028242439900472
21.23999999999988         0.35640972297393503
21.25999999999987         0.3133564915052166
21.27999999999987         0.2768110436214987
21.29999999999987         0.24681359958865157
21.31999999999986         0.22238189594358007
21.33999999999986         0.20247856640281933
21.35999999999987         0.1861977436594603
21.379999999999864        0.17282143832373054
21.399999999999864        0.16179360883602745
21.419999999999867        0.15268633528231532
21.43999999999987         0.14517039199661907
21.45999999999988         0.13899215087377131
21.479999999999873        0.13395613415978672
21.499999999999865        0.12991203886304048
21.51999999999986         0.12674519113011837
21.539999999999864        0.12436958666978432
21.559999999999874        0.12272288843655456
21.579999999999874        0.12176295290719535
21.59999999999987         0.12146538224034942
21.619999999999873        0.12182243816382078
21.63999999999988         0.1228424555557044
21.659999999999883        0.12455036224212447
21.67999999999988         0.12698901175195557
21.699999999999882        0.13022150218460357
21.719999999999878        0.1343347023159367
21.739999999999878        0.1394442961458119
21.75999999999988         0.14570179535608405
21.779999999999877        0.15330414935166095
21.79999999999989         0.16250680152830502
21.819999999999887        0.17364126806082505
21.83999999999988         0.1871408900587819
21.859999999999882        0.20356061368238837
21.879999999999885        0.22362406153324674
21.899999999999885        0.24824007757737163
21.91999999999989         0.2784727331983567
21.93999999999989         0.31529130363686714
21.959999999999894        0.3586639840249038
21.97999999999989         0.40542661006719183
21.99999999999989         0.44760430683704217
22.019999999999897        0.477093084390554
22.039999999999907        0.49357992366810965
22.059999999999892        0.501584064230667
22.079999999999902        0.5050671314764963
22.099999999999895        0.5060561346929375
22.119999999999905        0.5051236619969454
22.1399999999999          0.5016967209066076
22.15999999999989         0.493747277519153
22.179999999999886        0.4773111212143304
22.19999999999988         0.4478639077325035
22.219999999999864        0.40571399759919197
22.239999999999856        0.3589680699336242
22.25999999999986         0.31560759155623835
22.27999999999985         0.27880141170368744
22.29999999999985         0.24858337278551257
22.319999999999848        0.2239848031151302
22.339999999999847        0.20394170720271868
22.35999999999986         0.1875451715390843
22.379999999999846        0.17407345234108954
22.399999999999856        0.16296556822568825
22.419999999999856        0.1537940551350679
22.439999999999852        0.14622534959660752
22.459999999999862        0.14000399842855904
22.479999999999865        0.13493310365344466
22.49999999999986         0.13086127948855145
22.519999999999865        0.127673032355602
22.53999999999986         0.12528174401125994
22.559999999999864        0.12362462937426717
22.579999999999863        0.12265921468318397
22.59999999999986         0.12236102433660377
22.619999999999866        0.12272226823716328
22.639999999999866        0.12375140381335752
22.65999999999987         0.12547348828811383
22.679999999999872        0.1279318177403233
22.69999999999987         0.13118990655949694
22.719999999999867        0.13533527861511213
22.73999999999987         0.14048449400321783
22.75999999999987         0.14679021168282022
22.779999999999873        0.1544508708586835
22.799999999999873        0.16372384524645187
22.819999999999876        0.17494315439359942
22.839999999999886        0.18854292100434733
22.859999999999882        0.20508727074589633
22.879999999999878        0.22530466004733474
22.899999999999878        0.2501141822600911
22.91999999999988         0.2805946379376651
22.939999999999877        0.31766517264432426
22.959999999999873        0.36136527476734714
22.97999999999987         0.40848126947634544
22.999999999999872        0.4509787650133577
23.019999999999868        0.4806926449970723
23.039999999999868        0.49730653627223603
23.059999999999864        0.5053732167851752
23.07999999999986         0.5088842479803309
23.099999999999866        0.509882086489866
23.119999999999862        0.5089459237817341
23.13999999999987         0.5054959943294968
23.159999999999865        0.49747604519461963
23.179999999999865        0.4808514036571857
23.199999999999854        0.45111580094471454
23.219999999999857        0.40878447178477395
23.239999999999853        0.36168637480801563
23.259999999999835        0.31799941517036656
23.279999999999834        0.2809161794287658
23.299999999999827        0.25047076814017694
23.319999999999837        0.22568724462258025
23.339999999999826        0.20549360654642282
23.35999999999983         0.18897408744646987
23.379999999999836        0.17540149609800915
23.399999999999835        0.16421208572424073
23.419999999999845        0.1549718011451492
23.439999999999834        0.1473466137461803
23.459999999999834        0.1410791379716046
23.479999999999837        0.13597063843396012
23.499999999999844        0.13186930308011002
23.51999999999984         0.1286582752851221
23.539999999999843        0.12625028546377595
23.55999999999984         0.12458208054098864
23.579999999999846        0.1236108718770083
23.59999999999985         0.12331200177611658
23.61999999999985         0.12367762503869117
23.639999999999848        0.12471629230974686
23.659999999999847        0.126453393029124
23.67999999999985         0.12893248586584197
23.69999999999985         0.13221766468289559
23.71999999999985         0.13639714927642832
23.739999999999856        0.1415884328658487
23.75999999999986         0.1479446987477586
23.779999999999852        0.15566707787619669
23.799999999999855        0.16501450977337534
23.81999999999986         0.1763236665833136
23.839999999999858        0.19003211631631106
23.859999999999857        0.20670845266881208
23.87999999999986         0.22708687766809324
23.89999999999986         0.25209374173503735
23.919999999999867        0.28281636956655914
23.939999999999856        0.3202436364970052
23.959999999999855        0.36430937215048953
23.97999999999986         0.4117057318598363
23.999999999999854        0.45441775340448554
24.01999999999985         0.48443610881865906
24.03999999999985         0.5012556204647692
24.05999999999985         0.5093884298569578
24.079999999999846        0.5129289352727887
24.099999999999852        0.5139359758150986
24.119999999999845        0.5129934196393336
24.139999999999855        0.5095168440826724
24.15999999999985         0.5014334747788272
24.179999999999843        0.48467647313833717
24.199999999999847        0.4547042482250717
24.219999999999832        0.41202399309006976
24.239999999999828        0.36464712164205976
24.259999999999817        0.3205955704669522
24.279999999999816        0.28318257783411427
24.299999999999812        0.25246995793435717
24.319999999999823        0.2274904693699173
24.33999999999981         0.2071373126291101
24.359999999999815        0.19048746851954995
24.37999999999981         0.1768079762931438
24.399999999999817        0.1655306125431588
24.419999999999817        0.15621787424561429
24.439999999999817        0.14853308708626342
24.45999999999982         0.14221685089329317
24.479999999999823        0.13706920507614515
24.49999999999982         0.1329363762486937
24.519999999999825        0.1297010355751032
24.53999999999982         0.12727519809680224
24.55999999999982         0.12559510259185153
24.579999999999814        0.12461759709320865
24.599999999999824        0.12431791133181361
24.619999999999823        0.12468809457982316
24.639999999999834        0.12573677528906504
24.65999999999983         0.12748955659335506
24.679999999999826        0.12999037724871176
24.69999999999983         0.13330389624123448
24.71999999999983         0.1375191001694653
24.739999999999828        0.1427544713375767
24.75999999999983         0.14916517246655087
24.77999999999983         0.1569528985109417
24.79999999999983         0.16637923979573008
24.81999999999984         0.1777836487757321
24.839999999999836        0.1916071867991156
24.859999999999832        0.20842014798829855
24.879999999999832        0.22896835767101367
24.89999999999983         0.2541832984183
24.919999999999835        0.28516131238194214
24.939999999999834        0.3228995010570046
24.959999999999837        0.36733126953528256
24.979999999999848        0.4151217744365206
24.999999999999837        0.4581902546385553
25.019999999999843        0.48846085920107407
25.039999999999843        0.5054163146156095
25.059999999999842        0.5136299123162639
25.079999999999846        0.5171993882995708
25.09999999999984         0.5182138233321159
25.11999999999984         0.5172644379614368
25.13999999999984         0.5137595931764186
25.15999999999984         0.5056090680397214
25.179999999999836        0.4887120717463586
25.199999999999832        0.45848984067171933
25.219999999999818        0.41545481550739083
25.23999999999981         0.3676849973221316
25.259999999999806        0.32326838733926716
25.2799999999998          0.28554541520547905
25.299999999999795        0.2545851866696517
25.3199999999998          0.2293914008526758
25.339999999999808        0.20886780686494433
25.3599999999998          0.19208024669703994
25.379999999999797        0.1782882700182774
25.399999999999803        0.16691993546465234
25.419999999999803        0.15753053350515245
25.439999999999802        0.14978262608617868
25.459999999999805        0.143414657734866
25.479999999999805        0.1382250246755282
25.499999999999805        0.1340587067582387
25.519999999999808        0.13079741565332062
25.539999999999818        0.12835243077022548
25.559999999999803        0.12665944593935347
25.579999999999814        0.12567497436886216
25.599999999999813        0.12537396901811315
25.619999999999813        0.12574847500962144
25.639999999999812        0.1268072018244038
25.659999999999823        0.1285759760135354
25.67999999999981         0.13109925335109335
25.699999999999825        0.13444203234227914
25.71999999999982         0.13869416142812474
25.739999999999814        0.14397515768551677
25.75999999999982         0.15044153896160053
25.779999999999827        0.15829674346889758
25.79999999999982         0.1678046074267108
25.819999999999812        0.1793074878570349
25.839999999999826        0.1932502117722273
25.859999999999822        0.21021047641052393
25.87999999999983         0.23093345910998492
25.899999999999828        0.2563576467337662
25.919999999999824        0.287581873287298
25.93999999999982         0.325670645238686
25.959999999999827        0.370483782466194
25.97999999999982         0.4186850678024199
25.999999999999822        0.46212531181529337
26.019999999999822        0.49265930638122535
26.03999999999983         0.5097638020355978
26.059999999999825        0.5180504473307915
26.079999999999814        0.5216522990536452
26.099999999999824        0.5226766955048224
26.11999999999982         0.5217177976665235
26.139999999999816        0.5181812494509994
26.15999999999982         0.5099716417153258
26.179999999999815        0.4929942010147545
26.199999999999815        0.4625783901530751
26.219999999999803        0.4190338744486087
26.239999999999792        0.37085524391012253
26.259999999999792        0.3260591995261469
26.279999999999784        0.2880143601025148
26.299999999999784        0.25679030341495845
26.31999999999978         0.23138216659273578
26.33999999999978         0.21068432695221267
26.35999999999979         0.19375464693676236
26.379999999999782        0.1798463463472028
26.399999999999782        0.16838107183011847
26.41999999999979         0.1589137550850252
26.4399999999998          0.15110198903309927
26.45999999999978         0.14468199193612588
26.47999999999979         0.13945045591972582
26.49999999999979         0.13525128784794876
26.51999999999979         0.13196471626801942
26.539999999999786        0.12950162684641559
26.559999999999793        0.1277971821626749
26.579999999999792        0.12680752489503494
26.5999999999998          0.1265074044134047
26.6199999999998          0.1268888240223762
26.639999999999805        0.12796060508829085
26.659999999999798        0.12974884239401216
26.6799999999998          0.13229828739097999
26.6999999999998          0.13567477619087112
26.7199999999998          0.13996891213781415
26.739999999999803        0.1453013272150792
26.75999999999981         0.1518307179482436
26.779999999999802        0.15976129299933792
26.79999999999981         0.16935985546502746
26.819999999999805        0.18097196531468984
26.839999999999804        0.19504660237067736
26.859999999999808        0.21216685113049996
26.879999999999804        0.23308483676574399
26.899999999999803        0.25874778514580693
26.919999999999824        0.2902647505349345
26.939999999999813        0.3286461131727979
26.95999999999981         0.37385930407830703
26.97999999999981         0.42260837727247486
26.999999999999805        0.466584492144608
27.0199999999998          0.4973400689516129
27.0399999999998          0.5145351800637356
27.059999999999807        0.5229019000148288
27.079999999999803        0.5265391342125011
27.099999999999802        0.5275742929205774
27.11999999999981         0.5266072257825081
27.1399999999998          0.5230378834047265
27.159999999999812        0.514750901354186
27.179999999999797        0.49761298676637633
27.19999999999979         0.46691072946754825
27.219999999999786        0.42297152237201524
27.239999999999778        0.3742461297359036
27.25999999999977         0.3290513044573096
27.27999999999977         0.2906886126549319
27.299999999999763        0.259193121242081
27.319999999999776        0.2335546714249207
27.339999999999772        0.21266347962666124
27.359999999999765        0.19557560863416887
27.379999999999765        0.18153734395598656
27.39999999999976         0.16996495486623495
27.41999999999977         0.16040921726564358
27.439999999999763        0.15252452029507682
27.45999999999977         0.14604461177104913
27.479999999999762        0.14076427787530632
27.499999999999766        0.13652573535265905
27.51999999999977         0.13320861701453224
27.53999999999977         0.13072266546971964
27.559999999999768        0.1290024718683916
27.57999999999977         0.12800381740037586
27.599999999999774        0.12770113706747924
27.619999999999777        0.12808640099914897
27.639999999999773        0.1291685075296005
27.659999999999787        0.13097379703157608
27.67999999999978         0.13354744420484652
27.699999999999775        0.1369559073966364
27.719999999999775        0.1412906453255145
27.739999999999778        0.14667342787792423
27.75999999999979         0.1532637155145984
27.77999999999978         0.1612687703653484
27.79999999999978         0.17095739172399418
27.819999999999784        0.18267840741880498
27.839999999999787        0.19688516099751427
27.859999999999783        0.21416929963506692
27.879999999999782        0.23528430236422263
27.899999999999785        0.2611888853050111
27.919999999999785        0.29300250998480326
27.939999999999785        0.33174504716689224
27.959999999999795        0.3773837467591818
27.979999999999794        0.4265923119445641
27.999999999999794        0.47098488570043373
28.019999999999797        0.5020343203229433
28.0399999999998          0.5194023094809654
28.0599999999998          0.5278393272700849
28.0799999999998          0.5315147130623953
28.0999999999998          0.5325630741482597
28.119999999999795        0.5315898916772398
28.139999999999798        0.5279846760831045
28.1599999999998          0.5196186267509159
28.179999999999794        0.5023169076645042
28.199999999999783        0.47132268582648396
28.21999999999977         0.42696842758533055
28.239999999999768        0.37778456452756076
28.259999999999756        0.3321650876071976
28.279999999999745        0.29344207981016013
28.29999999999975         0.26165085563983054
28.319999999999748        0.2357723629991663
28.339999999999748        0.2146872319099538
28.35999999999975         0.19743921169520737
28.379999999999747        0.18326896018496
28.399999999999753        0.17158625167354116
28.419999999999753        0.16194132155709287
28.439999999999753        0.15398321128955786
28.459999999999752        0.1474431572217123
28.479999999999755        0.14211400921297523
28.499999999999755        0.13783649527946767
28.519999999999754        0.13448911229093902
28.53999999999976         0.13198075137631113
28.559999999999757        0.1302453953815815
28.579999999999753        0.12923841143292158
28.59999999999976         0.12893410452395088
28.619999999999752        0.12932433652894718
28.639999999999763        0.1304180962541853