% Model:              Untitled.mph
% Version:            COMSOL 5.6.0.280
% Date:               Sep 24 2021, 10:24
% Dimension:          1
% Nodes:              1015
% Expressions:        1
% Description:        线图
% cln2x                   Height
21.52                     0.23175717599374626
21.539999999999992        0.23355003082007988
21.55999999999999         0.23905560200363943
21.58                     0.24859384362819983
21.599999999999994        0.26273011289875664
21.61999999999999         0.28228603867102503
21.639999999999986        0.30831745540038386
21.65999999999999         0.34184301809592516
21.679999999999996        0.3827504513052877
21.700000000000003        0.4271935063349187
21.719999999999995        0.46685290168850935
21.739999999999995        0.4956439684599172
21.759999999999994        0.5110056730984301
21.779999999999998        0.5154879824192984
21.799999999999986        0.5110460969217135
21.819999999999983        0.4957759321278052
21.839999999999993        0.46696464820238603
21.859999999999996        0.42733274728532833
21.879999999999995        0.38291014109328697
21.89999999999999         0.3420194359188115
21.91999999999999         0.30850987777926775
21.939999999999998        0.2824950642977066
21.95999999999999         0.2629566661591407
21.97999999999999         0.24883877498491178
21.999999999999993        0.2393180687480818
22.02                     0.23383256793635676
22.039999999999992        0.23205969652183464
22.059999999999995        0.23389508646097648
22.07999999999999         0.23944473157887364
22.099999999999987        0.24903270108586423
22.119999999999994        0.26322088806495414
22.139999999999986        0.2828393167319758
22.15999999999999         0.30894474954272283
22.179999999999993        0.3425583741613863
22.199999999999992        0.38356768062826163
22.219999999999988        0.428117716224085
22.239999999999984        0.46787076720116044
22.259999999999984        0.4967292331308998
22.279999999999983        0.5121269782981934
22.299999999999986        0.5166201716137708
22.31999999999999         0.5121688746276939
22.33999999999999         0.4968652655942828
22.359999999999992        0.46810642759334925
22.379999999999992        0.4282777700163593
22.399999999999988        0.38375386261159133
22.419999999999987        0.3427749856600146
22.43999999999999         0.30919360489421716
22.459999999999983        0.28312349423777783
22.479999999999986        0.2635440786215624
22.499999999999986        0.24939713899682808
22.51999999999998         0.23985756481570739
22.539999999999992        0.23436217279840194
22.559999999999988        0.23258771930559433
22.579999999999984        0.2344296596079422
22.599999999999984        0.2399942869925493
22.619999999999987        0.24960646684090218
22.639999999999986        0.2638304777507224
22.65999999999998         0.28349516690253784
22.67999999999998         0.3096629079880526
22.699999999999985        0.3433562381353057
22.719999999999978        0.3844624412029361
22.739999999999988        0.42911776989435907
22.759999999999977        0.46896524992358524
22.779999999999976        0.4978927692864224
22.799999999999976        0.5133280402752094
22.819999999999975        0.5178329103336008
22.83999999999998         0.5133719790547728
22.859999999999978        0.4980331068800847
22.879999999999978        0.4692075722975821
22.899999999999984        0.42928651386266636
22.919999999999977        0.38458536905898727
22.93999999999997         0.3435863595977732
22.959999999999976        0.309928012589565
22.979999999999976        0.28379860749909797
22.99999999999998         0.26417519587886484
23.019999999999975        0.24999709142627616
23.039999999999974        0.24043726587754993
23.05999999999997         0.2349312455363504
23.079999999999977        0.2331550724230905
23.099999999999973        0.23500401439146434
23.119999999999976        0.24058468863499793
23.139999999999972        0.25022281858708767
23.15999999999997         0.26448413001056054
23.17999999999997         0.2841953502091568
23.19999999999997         0.3104138263311548
23.21999999999997         0.34421313499706296
23.239999999999977        0.3854234610117772
23.259999999999977        0.43019196389446984
23.27999999999997         0.4701409418727586
23.29999999999997         0.49914273359444294
23.319999999999965        0.5146184277653885
23.339999999999964        0.5191359997433147
23.35999999999997         0.5146648978614716
23.379999999999967        0.4992882973187719
23.399999999999967        0.4703912040040375
23.419999999999966        0.43037088624252917
23.439999999999973        0.38555886326391103
23.459999999999965        0.34440524634355757
23.479999999999972        0.31071729825645805
23.499999999999964        0.28452400569259106
23.519999999999964        0.2648531300178315
23.53999999999996         0.2506413441295272
23.559999999999967        0.24105955679910188
23.579999999999966        0.23554190261227664
23.599999999999962        0.23376365159850238
23.619999999999965        0.23561986584726446
23.639999999999958        0.2412175059577966
23.659999999999965        0.25088321242454614
23.679999999999968        0.2651842608186415
23.69999999999996         0.2849496207525295
23.719999999999956        0.31123949778836885
23.73999999999996         0.3450770614686829
23.75999999999996         0.3864520668319941
23.779999999999955        0.4313415774716066
23.799999999999965        0.47139893416881395
23.819999999999954        0.5004799262089713
23.839999999999957        0.5159985564504499
23.85999999999996         0.5205293880181093
23.87999999999996         0.5160469533788367
23.899999999999952        0.5006293909280406
23.919999999999956        0.4716552587626705
23.939999999999962        0.43152849025923823
23.959999999999955        0.386598039538177
23.979999999999958        0.34533617213867285
23.99999999999995         0.31153950461564
24.01999999999995         0.2852941669312513
24.03999999999995         0.2655767175286815
24.05999999999995         0.25132878896425875
24.079999999999952        0.24172333794596673
24.099999999999948        0.23619301387540242
24.11999999999995         0.23441225885899145
24.139999999999954        0.23627590876027146
24.159999999999958        0.24189128042777353
24.179999999999954        0.2515859780786288
24.19999999999995         0.26592890991131735
24.219999999999953        0.28575140818372374
24.239999999999945        0.31211668882375043
24.25999999999995         0.34605083962075733
24.279999999999944        0.38746894538240123
24.299999999999944        0.4325613996468855
24.31999999999994         0.4727340927309872
24.339999999999954        0.5018997242893026
24.359999999999946        0.5174647034789106
24.379999999999946        0.5220103593378076
24.39999999999995         0.5175167642337317
24.419999999999945        0.502056765973296
24.43999999999994         0.47300159323780083
24.459999999999944        0.43276205710451443
24.479999999999936        0.3877051911224194
24.499999999999943        0.3463273919192968
24.519999999999946        0.31243608836469533
24.53999999999994         0.28611765266292083
24.559999999999935        0.26634679956730867
24.579999999999934        0.25205900231709927
24.599999999999937        0.24242806066263645
24.619999999999933        0.23688396308999407
24.639999999999933        0.2351002528626081
24.659999999999936        0.23697151206706618
24.679999999999932        0.24260542674354638
24.699999999999942        0.2523306184635633
24.71999999999994         0.2667177262674789
24.739999999999938        0.28660059298997104
24.759999999999934        0.3130456385058763
24.779999999999934        0.34708205666412056
24.799999999999933        0.3886247700316737
24.819999999999933        0.43385804778188886
24.839999999999936        0.4742639265445281
24.859999999999943        0.5034017858326548
24.879999999999942        0.5190150327741784
24.899999999999938        0.5235757054184556
24.91999999999993         0.5190696565782554
24.939999999999934        0.5035640713286919
24.95999999999993         0.4744226672271153
24.979999999999936        0.43406362795031167
24.99999999999993         0.38887332852063783
25.01999999999993         0.347373348143152
25.03999999999993         0.31338229817718977
25.059999999999935        0.286986766564932
25.079999999999927        0.267158415148631
25.09999999999993         0.2528315413493254
25.11999999999993         0.24317161149939331
25.13999999999993         0.23761283979657377
25.15999999999993         0.23582585227383074
25.17999999999993         0.23770496062150687
25.19999999999993         0.2433582366202545
25.219999999999935        0.25311536987115124
25.23999999999993         0.2675488179507367
25.259999999999923        0.2874950618665196
25.27999999999993         0.31402388796949976
25.299999999999926        0.348167752306898
25.31999999999993         0.3898414067140061
25.339999999999925        0.435217429540423
25.35999999999992         0.47575146986832606
25.379999999999928        0.5050375129236537
25.39999999999993         0.5206464103898205
25.41999999999993         0.5252226762767944
25.439999999999923        0.5207031025042514
25.459999999999923        0.5051489531896567
25.479999999999915        0.47591631873443213
25.499999999999922        0.43543126468901705
25.51999999999993         0.39010074225620583
25.539999999999925        0.3484725426074422
25.55999999999992         0.3143768222066863
25.579999999999927        0.28790036033253047
25.599999999999923        0.26801161929209777
25.61999999999992         0.25364160175607553
25.639999999999922        0.24395473397174292
25.65999999999992         0.23837972197618923
25.679999999999918        0.23658843992351963
25.699999999999918        0.23847569792453094
25.719999999999914        0.24414920250837804
25.739999999999913        0.2539397606343112
25.75999999999992         0.26842173348245824
25.77999999999992         0.2884343632773494
25.799999999999923        0.31505095830777863
25.819999999999915        0.3493073861462327
25.83999999999991         0.39111823106550325
25.859999999999914        0.43664390937138886
25.879999999999914        0.47731252471879326
25.899999999999913        0.5066966778251799
25.91999999999991         0.5223596974469475
25.939999999999916        0.5269519857578957
25.959999999999916        0.5224188849858796
25.979999999999908        0.5068146983725146
25.999999999999908        0.47748704078808224
26.01999999999991         0.43687005354397396
26.0399999999999          0.3913918616405908
26.059999999999903        0.34962830749720636
26.079999999999906        0.31542207665701205
26.099999999999913        0.2888602051132636
26.119999999999916        0.2689077502484231
26.139999999999905        0.2544921999442018
26.15999999999991         0.2447752587803102
26.179999999999907        0.23918379652062446
26.19999999999991         0.2373886434011166
26.219999999999906        0.2392842880470905
26.23999999999991         0.24497885567097277
26.25999999999991         0.2548043123129616
26.279999999999905        0.2693370069092411
26.29999999999991         0.2894190677611771
26.319999999999904        0.31612748474007113
26.339999999999893        0.3505016894357644
26.359999999999907        0.39245609044822405
26.379999999999903        0.43813841139257503
26.399999999999906        0.47894795987378297
26.419999999999902        0.5084348668818128
26.439999999999905        0.5241537367617798
26.4599999999999          0.5287634297875765
26.479999999999908        0.5242149024710795
26.4999999999999          0.5085584345177854
26.5199999999999          0.47913072139240487
26.5399999999999          0.43837525966111957
26.559999999999896        0.3927425890287754
26.579999999999895        0.35083763004460866
26.599999999999895        0.3165159569419596
26.619999999999894        0.28986483876803115
26.639999999999894        0.26984578843755935
26.659999999999904        0.25538263215829515
26.679999999999897        0.24563422747517105
26.69999999999989         0.24002552930409887
26.719999999999892        0.2382262923279144
26.739999999999895        0.2401299246275989
26.759999999999895        0.24584727822447805
26.779999999999898        0.25570924640421633
26.79999999999989         0.27029503401402905
26.81999999999989         0.2904498060590239
26.839999999999897        0.3172544280453924
26.859999999999893        0.35175207986378737
26.879999999999896        0.39385694281110284
26.89999999999989         0.43970320542349656
26.91999999999989         0.4806597227426637
26.93999999999989         0.5102534065219934
26.95999999999989         0.5260298532744045
26.97999999999989         0.5306569909468939
26.9999999999999          0.5260924929674773
27.019999999999893        0.5103240048395871
27.03999999999989         0.48084700216982207
27.059999999999892        0.43994651335423696
27.079999999999885        0.3941525601966452
27.099999999999884        0.35210014589136535
27.119999999999884        0.3176580861096996
27.13999999999989         0.29091385832495603
27.159999999999886        0.27082529160348773
27.179999999999886        0.25631240634262625
27.19999999999989         0.24653109094092973
27.219999999999878        0.24090429163877825
27.239999999999878        0.2391006460835638
27.259999999999877        0.2410132381270376
27.279999999999884        0.24675184561985403
27.299999999999887        0.25665120268689834
27.31999999999988         0.27129407503062175
27.339999999999872        0.2915243199925754
27.35999999999989         0.31842879797914625
27.379999999999885        0.3530545603032864
27.399999999999878        0.3953156029170118
27.419999999999877        0.44133235394433246
27.439999999999884        0.48244236814614144
27.45999999999988         0.5121480130449707
27.47999999999988         0.5279853610335838
27.49999999999988         0.5326314950103398
27.519999999999882        0.5280512459751356
27.53999999999989         0.5122250675174623
27.55999999999988         0.48252061547355163
27.579999999999874        0.4415882147397126
27.599999999999874        0.39562563172648957
27.619999999999877        0.35341867284675
27.639999999999876        0.31885040594651853
27.659999999999876        0.2920085970487381
27.67999999999987         0.2718471914034294
27.699999999999875        0.25728219499067173
27.719999999999878        0.24746636665409943
27.739999999999874        0.24182052705384557
27.759999999999874        0.24001212370418806
27.779999999999873        0.24193390237157184
27.799999999999876        0.2476961068807316
27.819999999999872        0.2576347842628627
27.839999999999872        0.27233388153376925
27.85999999999987         0.29264374476643384
27.87999999999987         0.319652185174923
27.89999999999987         0.35441136823578606
27.91999999999987         0.39683508038805265
27.939999999999873        0.4430293051494821
27.95999999999987         0.4842988529713134
27.97999999999987         0.5141206614475499
27.999999999999872        0.530020923560288
28.019999999999868        0.5346863325665299
28.039999999999868        0.5300890727056512
28.059999999999867        0.5142020885849254
28.079999999999874        0.484383598493285
28.099999999999866        0.4432893208756217
28.119999999999862        0.39723325130404735
28.139999999999862        0.3547892239918111
28.15999999999986         0.3200899779240264
28.179999999999865        0.29314685075681607
28.19999999999986         0.27290977756230295
28.219999999999864        0.2582906167273906
28.23999999999986         0.24843889076857315
28.259999999999863        0.2427732183008549
28.279999999999863        0.24095980416022258
28.299999999999855        0.2428910399470059
28.319999999999865        0.2486776658477296
28.33999999999986         0.2586570989940512
28.359999999999864        0.273415629497775
28.379999999999864        0.2938113586085825
28.399999999999856        0.32092335302130687
28.419999999999856        0.3558210562619234
28.43999999999987         0.39841367939196864
28.459999999999866        0.444792156345012
28.479999999999862        0.4862272262986452
28.499999999999858        0.5161694721050799
28.519999999999865        0.5321348567344327
28.539999999999864        0.5368201177452041
28.559999999999864        0.532205068548336
28.579999999999856        0.5162548339264726
28.599999999999856        0.4863178420834261
28.619999999999862        0.4450606731070554
28.639999999999855        0.3988229455091393
28.65999999999985         0.35626713912309305
28.679999999999847        0.32137686084224376
28.699999999999854        0.2943285123371212
28.71999999999985         0.27401283559047007
28.73999999999985         0.25933738542121215
28.75999999999985         0.24944832503758954
28.77999999999985         0.24376198742695868
28.799999999999855        0.2419432829263647
28.819999999999848        0.24388422186455835
28.839999999999847        0.24969605462013428
28.859999999999843        0.25971762535922827
28.87999999999985         0.2745376539036365
28.899999999999846        0.29501777572233456
28.91999999999985         0.3222626173313526
28.939999999999845        0.35733780763288103
28.959999999999845        0.4000502511648793
28.97999999999986         0.44661960975369425
28.99999999999985         0.4882261635205022
29.019999999999854        0.5182931690694702
29.039999999999853        0.5343259918941408
29.059999999999853        0.5390317829986666
29.07999999999985         0.5343982585915182
29.09999999999984         0.5183824375217697
29.11999999999985         0.4883225987983768
29.139999999999855        0.4468965845238088
29.159999999999854        0.40047056803274694
29.179999999999847        0.35774209568284493
29.19999999999984         0.32273181690496416
29.219999999999843        0.29555324213007605
29.23999999999984         0.27515607540966674
29.259999999999835        0.26042225036246913
29.279999999999845        0.25049444847843194
29.29999999999984         0.244786632931413
29.319999999999837        0.2429623716483316
29.339999999999844        0.2449132746046872
29.35999999999984         0.250751107477797
29.379999999999836        0.2608161872789091
29.39999999999984         0.27569975202467545
29.419999999999835        0.2962670920350917
29.43999999999984         0.3236275076246789
29.45999999999983         0.3588511628038388
29.479999999999833        0.4018217828298464
29.49999999999985         0.4485110964848196
29.519999999999847        0.4902950903635289
29.53999999999984         0.5204912054057163
29.55999999999983         0.5365938083003657
29.57999999999984         0.5413207297703148
29.599999999999838        0.5366677796623007
29.619999999999834        0.5205836200058847
29.639999999999834        0.4903962696087301
29.659999999999833        0.4487953117922571
29.67999999999982         0.40217462044261215
29.699999999999832        0.35926780857744706
29.719999999999825        0.32411184570920437
29.739999999999828        0.2968249436712685
29.759999999999827        0.2763380931137015
29.77999999999983         0.2615450477620079
29.79999999999983         0.2515772032219251
29.81999999999983         0.24584717724157767
29.839999999999826        0.244017152424609
29.859999999999832        0.24597832617508858
29.879999999999832        0.25184299425622425
29.899999999999817        0.26195298597692096
29.91999999999982         0.27690213257897434
29.93999999999982         0.2975594973206721
29.95999999999983         0.32503920643340606
29.97999999999983         0.3604161007799752
29.999999999999822        0.4035735906525415
30.01999999999983         0.4504614989833379
30.03999999999984         0.4923133837602869
30.059999999999828        0.5227642305626699
30.079999999999828        0.5389395215438819
30.099999999999824        0.5436888336142505
30.119999999999827        0.5390164679528664
30.139999999999826        0.522862488575523
30.159999999999823        0.49254391311399376
30.17999999999981         0.4507623565435716
30.199999999999815        0.40393994525042815
30.21999999999982         0.3608480436931169
30.239999999999817        0.3255408831304775
30.259999999999813        0.29813705313058003
30.279999999999813        0.27756285542991166
30.299999999999812        0.26270519771812834
30.319999999999816        0.2526978442065293
30.339999999999815        0.2469447406405108
30.359999999999815        0.24510867120024762
30.379999999999814        0.2470804009758884
30.39999999999982         0.25297277270658053
30.419999999999817        0.2631291823116999
30.439999999999817        0.27814614982215796
30.45999999999982         0.29889665573739793
30.47999999999982         0.3264998410852153
30.499999999999815        0.3620354046942935
30.51999999999981         0.40538638717746495
30.53999999999981         0.4524849257139061
30.55999999999981         0.49452576939472326
30.579999999999814        0.5250576853265965
30.599999999999813        0.5413644411811044
30.61999999999981         0.5461360021305551
30.63999999999981         0.54144241554017
30.659999999999815        0.5252148162128074
30.679999999999808        0.4947594946296351
30.699999999999804        0.4527907063804052
30.719999999999803        0.40576037657795805
30.739999999999807        0.36247818308976365
30.759999999999817        0.32701561386146893
30.77999999999981         0.29949155465228783
30.799999999999805        0.27882749056942735
30.819999999999812        0.26390540836234383
30.839999999999808        0.25385368094897576
30.8599999999998          0.24807836153859503
30.879999999999804        0.24623603879665237
30.899999999999803        0.24821861410774881
30.919999999999806        0.2541394954110706
30.939999999999813        0.2643436917752771
30.95999999999981         0.27943048995486675
30.979999999999805        0.3002768982332009
30.999999999999805        0.3280072100879304
31.019999999999804        0.36370611726759505
31.039999999999807        0.4072563228418761
31.059999999999803        0.45457196945322975
31.079999999999806        0.49680807175395647
31.099999999999813        0.5274829454297076
31.11999999999981         0.5438665930503941
31.139999999999798        0.5486627385157511
31.1599999999998          0.5439483001679489
31.1799999999998          0.5276460567690124
31.199999999999797        0.4970506164785576
31.2199999999998          0.45488909651619297
31.23999999999979         0.4076435681889687
31.25999999999981         0.36416393987772344
31.279999999999795        0.32854009509632603
31.29999999999981         0.30089132608962516
31.319999999999787        0.2801340806460356
31.33999999999979         0.2651451779051476
31.35999999999979         0.2550490044864463
31.379999999999797        0.24924810726500482
31.399999999999803        0.2473999234028068
31.419999999999796        0.24939350218999704
31.439999999999795        0.25534361321346466
31.459999999999795        0.26559692549130237
31.4799999999998          0.28075557261926093
31.499999999999787        0.30170071165476253
31.51999999999979         0.32956194604016587
31.53999999999979         0.365429114457568
31.559999999999796        0.4091845730438274
31.579999999999796        0.45672391588990435
31.59999999999979         0.4991611958540885
31.619999999999788        0.5299833287655332
31.639999999999787        0.5464468994707116
31.659999999999794        0.5512671889004438
31.67999999999978         0.5465314751440767
31.699999999999783        0.5301505266522967
31.719999999999782        0.49940989811359643
31.739999999999796        0.4570493015846981
31.75999999999978         0.40958230629266285
31.77999999999978         0.3658998213072484
31.79999999999978         0.3301102937656211
31.81999999999978         0.3023333756899129
31.83999999999978         0.2814803636226816
31.85999999999978         0.2664227642937551
31.879999999999768        0.2562808692236838
31.899999999999768        0.2504544577178385
31.919999999999774        0.2485993946045443
31.939999999999767        0.2506050477065781
31.959999999999773        0.25658439021510066
31.97999999999978         0.2668881880488767
31.99999999999978         0.28212070613872287
32.019999999999776        0.30316736817055545
32.039999999999786        0.33116323699313266
32.059999999999775        0.3672034436665104
32.07999999999978         0.4111700063161744
32.09999999999978         0.4589395271823902
32.11999999999978         0.5015840123109419
32.13999999999979         0.5325579431458028
32.15999999999978         0.5491040479990302
32.17999999999979         0.5539494413199759
32.199999999999775        0.5491911106929227
32.21999999999978         0.5327884532748914
32.23999999999978         0.5018401803550805
32.25999999999977         0.4592746735151896
32.279999999999774        0.41157954150316217
32.29999999999977         0.36768801655738337
32.31999999999977         0.33172775154159556
32.33999999999977         0.3038187855396136
32.35999999999977         0.2828671116485589
32.37999999999977         0.2677387503782245
32.399999999999764        0.257549737681308
32.41999999999976         0.2516969951518423
32.43999999999976         0.24983477234215523
32.459999999999766        0.2518519483325657
32.47999999999977         0.2578636879066182
32.499999999999766        0.2682198205878572
32.51999999999977         0.28352615925091157
32.539999999999765        0.30467715586518684
32.55999999999977         0.3328114066067992
32.57999999999978         0.36902948469421665
32.599999999999774        0.4132130732201451
32.619999999999784        0.46121929533263734
32.63999999999977         0.5040769732348598
32.659999999999776        0.5352071649623635
32.67999999999978         0.5518382846741607
32.699999999999775        0.5567095156892222
32.71999999999978         0.5519277985976162
32.73999999999977         0.5354429261619057
32.75999999999978         0.5044645100311231
32.779999999999745        0.46156428849322934
32.79999999999976         0.413634716013374
32.81999999999976         0.369528523073764
32.83999999999976         0.3333930080146327
32.859999999999765        0.30534857936297355
32.87999999999976         0.2842957842882127
32.899999999999764        0.2690950178130295
32.91999999999975         0.25885792333798574
32.93999999999975         0.2529784688751812
32.95999999999975         0.2511092544539272
32.979999999999784        0.25313867228019815
32.999999999999766        0.2591825256681888
33.019999999999754        0.26959245903941464
33.03999999999976         0.28497851488769876
33.059999999999754        0.3062363212843807
33.07999999999976         0.3345136418068038
33.09999999999976         0.37091554311236713
33.11999999999976         0.4153233611293142
33.13999999999976         0.46357410909485164
33.15999999999977         0.5066520384308878
33.17999999999975         0.5379436952909533
33.199999999999754        0.5546626649365659
33.21999999999976         0.5595605206179491
33.23999999999976         0.554754424306124
33.25999999999975         0.5381843082506735
33.27999999999975         0.5070471697725133
33.29999999999974         0.463933765626617
33.31999999999975         0.41567730672813985
33.33999999999976         0.37143032241453644
33.35999999999975         0.33511450988881947
33.37999999999975         0.3069308361020694
33.39999999999975         0.28577423345135533
33.41999999999975         0.27049931618165235
33.43999999999974         0.2602132097240377
33.459999999999745        0.25430681463256144
33.47999999999974         0.25243103369636005
33.49999999999974         0.25447378114194746
33.51999999999974         0.2605515474613417
33.53999999999975         0.27101788279302613
33.55999999999975         0.2864860790285932
33.579999999999735        0.3078519439306329
33.599999999999746        0.3362829720000597
33.61999999999974         0.37287641108287894
33.639999999999745        0.4175177725934762
33.65999999999975         0.466023008646309
33.679999999999744        0.5093298606096707
33.69999999999977         0.5407891806863989
33.71999999999974         0.5575991839350191
33.739999999999746        0.5625245094382877
33.75999999999974         0.5576929625449335
33.77999999999975         0.5410341972951829
33.79999999999974         0.5097321114568107
33.819999999999744        0.4663920005022047
33.83999999999974         0.4178841691450821
33.85999999999974         0.37335051834832006
33.87999999999975         0.33690511553057184
33.899999999999736        0.30857693971242117
33.91999999999974         0.2873126614311732
33.939999999999735        0.27196089295904374
33.95999999999974         0.26162408213987004
33.979999999999734        0.25568993047458927
33.99999999999973         0.2538075509266508
34.01999999999973         0.25586436227073955
34.03999999999972         0.26197757735875876
34.05999999999975         0.27250273141442644
34.079999999999735        0.2880564944648676
34.09999999999973         0.30953957195190296
34.11999999999974         0.33810369326968853
34.13999999999974         0.3748607149233755
34.15999999999974         0.419802758436243
34.17999999999974         0.4685729351927694
34.19999999999974         0.5121186307080698
34.21999999999974         0.5437531975869895
34.23999999999975         0.5606587080952534
34.25999999999974         0.5656130663345628
34.27999999999974         0.5607551211302108
34.299999999999734        0.5440039328736552
34.31999999999973         0.5125299028260077
34.339999999999726        0.46895354884329193
34.35999999999972         0.4201839188457841
34.379999999999725        0.37541145095054074
34.39999999999972         0.3387493324230974
34.41999999999973         0.31029288544620987
34.43999999999972         0.2889165116084774
34.459999999999724        0.2734847351829779
34.47999999999973         0.2630951488296548
34.499999999999716        0.25713214104565263
34.51999999999972         0.255242933116729
34.53999999999972         0.25731440601114375
34.55999999999972         0.2634645254883058
34.57999999999973         0.27405089490369455
34.59999999999974         0.2896936967213574