% Model:              Untitled.mph
% Version:            COMSOL 5.6.0.280
% Date:               Sep 24 2021, 10:25
% Dimension:          1
% Nodes:              1015
% Expressions:        1
% Description:        线图
% cln2x                   Height
21.52                     0.229073308519092
21.539999999999996        0.23085102217642575
21.55999999999999         0.23637888628249015
21.58                     0.24597205435201375
21.599999999999998        0.2601881325482302
21.61999999999999         0.2798375431718883
21.63999999999999         0.30596100474284676
21.659999999999993        0.339558385389243
21.679999999999996        0.3804984558716956
21.699999999999992        0.4249276035011057
21.719999999999995        0.46454423805123074
21.739999999999984        0.49329187384867734
21.759999999999987        0.5086278440762895
21.779999999999987        0.5131017389631087
21.799999999999986        0.5086652719473302
21.819999999999983        0.49341665210527214
21.839999999999996        0.4646420985249496
21.859999999999992        0.4250433717668324
21.87999999999999         0.3806218380407455
21.899999999999995        0.339682665835147
21.919999999999984        0.3060829590066815
21.93999999999998         0.279955628902467
21.959999999999987        0.2603012407693213
21.979999999999983        0.24607889192317517
21.999999999999986        0.23647617365571855
22.019999999999982        0.23093842411335583
22.039999999999985        0.22914725754589135
22.05999999999998         0.2309996557855447
22.079999999999984        0.236600215349213
22.099999999999984        0.24626876509907827
22.119999999999983        0.2605598459375096
22.139999999999986        0.28029253944463944
22.159999999999986        0.30650857013576804
22.17999999999999         0.34021021723023687
22.199999999999996        0.38126566517877497
22.219999999999988        0.42581213888993935
22.239999999999984        0.46552953519253265
22.259999999999987        0.4943490713930529
22.279999999999987        0.5097237185423567
22.299999999999986        0.514209968945421
22.319999999999983        0.5097650713893355
22.339999999999982        0.49448400962625005
22.35999999999998         0.46576362470739635
22.379999999999992        0.42596953524226855
22.39999999999998         0.38144812842681736
22.419999999999977        0.3404221817951323
22.43999999999998         0.30675171871307244
22.459999999999976        0.2805698659976915
22.47999999999998         0.26087501437232974
22.49999999999998         0.24662401563934724
22.519999999999985        0.23700272220906934
22.53999999999998         0.23145530260730865
22.559999999999988        0.2296627241228274
22.57999999999998         0.2315218003743583
22.599999999999977        0.23713742476566343
22.619999999999987        0.24683020893510352
22.639999999999986        0.26115703440443633
22.659999999999982        0.2809358282863379
22.679999999999982        0.30721381746025495
22.69999999999998         0.34099459439641394
22.719999999999988        0.3821460920862669
22.73999999999998         0.4267967573119296
22.759999999999977        0.46660739929825595
22.77999999999997         0.4954950252193406
22.799999999999976        0.5109066047085796
22.819999999999975        0.5154043616431958
22.839999999999982        0.5109500814138782
22.859999999999978        0.49563444655363986
22.879999999999974        0.4668483934916147
22.899999999999984        0.4269630940275791
22.919999999999977        0.3822651941090532
22.939999999999976        0.3412200788415054
22.959999999999972        0.30747311358729656
22.979999999999972        0.28123224202159264
22.99999999999997         0.2614935345208987
23.01999999999997         0.24721141995766158
23.03999999999997         0.23756986755766749
23.05999999999997         0.23201177819080868
23.079999999999977        0.2302174161277922
23.099999999999973        0.23208340811717737
23.11999999999997         0.23771496117326738
23.13999999999997         0.24743352339183552
23.15999999999997         0.261797389296831
23.179999999999975        0.2816222297947266
23.199999999999974        0.30795023110017017
23.219999999999974        0.3418363380591395
23.239999999999974        0.38309078771029076
23.259999999999977        0.4278532336069783
23.279999999999966        0.46776402506637355
23.29999999999997         0.49672487845411395
23.31999999999997         0.5121762573140666
23.339999999999968        0.5166864387083443
23.35999999999997         0.5122219570016008
23.379999999999967        0.4968688682527151
23.399999999999967        0.46801200916241165
23.419999999999956        0.4280286054391041
23.43999999999997         0.38322122132557535
23.459999999999965        0.342022379228202
23.479999999999958        0.30824705044187634
23.499999999999957        0.28194286672309127
23.519999999999964        0.26215703915993016
23.539999999999957        0.24784142740129989
23.55999999999996         0.2381779915967335
23.57999999999996         0.232608276469993
23.59999999999996         0.23081179287453327
23.619999999999965        0.2326849651499913
23.639999999999958        0.2383333324777815
23.65999999999996         0.24807923343680377
23.679999999999957        0.26248246848243373
23.699999999999957        0.28236088662523445
23.71999999999996         0.30875944725709187
23.739999999999956        0.34268225049959933
23.759999999999952        0.38410012875120114
23.779999999999955        0.42898187895841366
23.79999999999996         0.4689997523275645
23.81999999999995         0.4980390368592708
23.839999999999954        0.513533218673358
23.859999999999957        0.5180569757206197
23.879999999999953        0.5135819687351747
23.899999999999952        0.49818931273712763
23.91999999999995         0.469257109819905
23.939999999999948        0.4291689617319819
23.959999999999948        0.384244256386772
23.979999999999954        0.34293778967582317
23.999999999999947        0.3090538995495288
24.019999999999946        0.2826980158464667
24.03999999999995         0.26286581127801995
24.05999999999995         0.24851408940706504
24.079999999999945        0.2388269743725082
24.099999999999948        0.23324454638248704
24.119999999999948        0.2314454994871269
24.13999999999995         0.23332603265378135
24.15999999999995         0.23899203190928286
24.179999999999954        0.24876677952606555
24.19999999999995         0.2632116774899896
24.219999999999953        0.2831468952095879
24.23999999999995         0.30962034987410847
24.25999999999995         0.3436389986672366
24.279999999999948        0.38509868136869524
24.299999999999947        0.43018213967384716
24.319999999999943        0.4703135020827902
24.33999999999995         0.4994357289553376
24.359999999999946        0.5149748988555651
24.379999999999946        0.5195125381735896
24.39999999999995         0.5150256135724304
24.41999999999994         0.4995899709081518
24.43999999999994         0.4705769608638067
24.45999999999994         0.43037713187446275
24.479999999999936        0.38532809543263286
24.49999999999994         0.3439078377590488
24.519999999999943        0.3099309424329285
24.539999999999935        0.28350306478968335
24.55999999999993         0.26361814698621194
24.579999999999934        0.2492270183306877
24.59999999999993         0.23951467220931025
24.619999999999933        0.23391860708116438
24.639999999999926        0.2321166528721181
24.65999999999993         0.23400476854843053
24.679999999999932        0.23968920407006178
24.699999999999942        0.24949423523743056
24.719999999999928        0.263982951210663
24.73999999999993         0.2839779661653132
24.759999999999934        0.31053031339895615
24.77999999999993         0.3446499611753261
24.79999999999993         0.3862325568552333
24.819999999999933        0.4314551554588524
24.839999999999936        0.4718182649494141
24.859999999999946        0.5009112284560711
24.87999999999994         0.5164982562121515
24.89999999999994         0.5210510550101076
24.919999999999927        0.5165523871869642
24.939999999999934        0.5010725210219802
24.95999999999993         0.4719750661219108
24.979999999999922        0.43165765052492544
24.999999999999922        0.38647661096203034
25.019999999999932        0.3449351139204114
25.039999999999925        0.3108590858150633
25.059999999999928        0.2843544891541894
25.079999999999924        0.26441227789765837
25.099999999999927        0.2499821641324998
25.119999999999923        0.24024082890649237
25.139999999999922        0.23463003502655613
25.159999999999922        0.23282470185811519
25.179999999999925        0.23472051574238498
25.19999999999993         0.24042409454716213
25.21999999999993         0.2502607468436474
25.23999999999993         0.26479532478554296
25.259999999999923        0.2848530010519469
25.279999999999927        0.3114880706243406
25.299999999999926        0.3457136530349939
25.319999999999922        0.38742520399027547
25.33999999999992         0.43278839812636016
25.359999999999925        0.47327798359628664
25.379999999999924        0.5025182005023547
25.399999999999928        0.5181004972315931
25.419999999999924        0.5226690932061837
25.43999999999992         0.5181575580027863
25.459999999999923        0.5026303721173359
25.47999999999992         0.47344342261202227
25.499999999999915        0.43300197188811734
25.51999999999992         0.38768238346433664
25.539999999999917        0.34601389545753686
25.559999999999913        0.3118340450703187
25.57999999999991         0.2852490681370965
25.59999999999992         0.2652467978250579
25.61999999999991         0.25077372068393944
25.639999999999908        0.24100553873935127
25.659999999999908        0.23537851485041558
25.679999999999914        0.2335688448934698
25.699999999999914        0.23547272600710667
25.719999999999914        0.2411963935751199
25.739999999999913        0.25106624643082387
25.75999999999992         0.26564899608066245
25.779999999999916        0.2857725135664864
25.799999999999912        0.3124945350301361
25.81999999999991         0.3468315025164689
25.839999999999915        0.3886786416204556
25.859999999999914        0.4341895150136773
25.87999999999991         0.4748116196729985
25.899999999999917        0.5041482687134183
25.919999999999913        0.5197835642297418
25.939999999999916        0.5243676278987248
25.95999999999991         0.5198423515603354
25.979999999999905        0.5042653432614
25.999999999999915        0.47498435558263874
26.01999999999991         0.43441265509179083
26.039999999999907        0.38894762175822034
26.0599999999999          0.3471458402374298
26.079999999999906        0.3128570200570751
26.0999999999999          0.2861876776950908
26.119999999999905        0.2661223658159784
26.139999999999905        0.25160417293094406
26.159999999999894        0.24180616764301127
26.179999999999904        0.23616283245528516
26.1999999999999          0.23434935079861724
26.2199999999999          0.2362616113388586
26.2399999999999          0.2420062646875477
26.2599999999999          0.2519108471514256
26.279999999999898        0.26654401879589174
26.29999999999991         0.28673647959986354
26.319999999999904        0.31354957360569274
26.3399999999999          0.3480032236664177
26.359999999999904        0.38999240037499444
26.3799999999999          0.43565793103908285
26.399999999999896        0.47641871313516954
26.419999999999895        0.5058561932601635
26.4399999999999          0.5215460326959329
26.459999999999898        0.5261469321277129
26.479999999999908        0.5216063323255635
26.4999999999999          0.5059777690925417
26.519999999999904        0.4765981909638409
26.539999999999896        0.43588999437865084
26.559999999999896        0.39027257235916696
26.579999999999888        0.3483311401381152
26.59999999999989         0.3139281455987915
26.61999999999989         0.2871703947202861
26.639999999999894        0.2670390021268285
26.6599999999999          0.2524734907006819
26.679999999999893        0.24264415561375322
26.69999999999989         0.236983612842083
26.719999999999892        0.23516599156690984
26.739999999999892        0.23708609678641634
26.759999999999888        0.24285330735318542
26.779999999999887        0.25279403289122804
26.79999999999989         0.26747973364072275
26.819999999999883        0.2877440568730216
26.8399999999999          0.3146521046536628
26.859999999999893        0.34922742326869355
26.879999999999892        0.3913647252433057
26.89999999999989         0.4371916253052406
26.919999999999888        0.47809725577199597
26.939999999999888        0.5076401141075949
26.95999999999989         0.5233869743518101
26.979999999999887        0.5280053069506087
26.999999999999897        0.5234491580405553
27.019999999999893        0.507709489193271
27.039999999999885        0.4782824306822622
27.05999999999988         0.4374314317166804
27.07999999999988         0.3916550106514746
27.09999999999988         0.34956802424804917
27.119999999999873        0.3150460282514406
27.139999999999876        0.28819610143965285
27.15999999999988         0.26799578633828686
27.17999999999988         0.2533809003246143
27.199999999999886        0.2435188462671117
27.219999999999875        0.23784028586258976
27.23999999999987         0.23601825994159312
27.259999999999877        0.23794725465556277
27.279999999999877        0.24373555457372623
27.29999999999988         0.2537134043933651
27.31999999999988         0.2684557625291993
27.33999999999988         0.2887948929107889
27.359999999999875        0.3158018064352987
27.37999999999988         0.3505038202429318
27.399999999999874        0.3927953818717766
27.419999999999874        0.438790371101971
27.439999999999877        0.4798469384708043
27.45999999999987         0.5094996404086419
27.47999999999988         0.5253059897572379
27.499999999999872        0.52994260861373
27.519999999999886        0.5253705128094571
27.539999999999882        0.5095735410551483
27.55999999999988         0.47991996224260225
27.579999999999874        0.4390395293712622
27.599999999999874        0.39309715320748734
27.619999999999873        0.3508580755478271
27.639999999999876        0.3162117127710476
27.659999999999865        0.28926546031811423
27.679999999999872        0.26899311776316004
27.699999999999868        0.25432661870973505
27.71999999999987         0.2444303331545913
27.739999999999874        0.2387328631709532
27.75999999999987         0.23690609938425342
27.779999999999873        0.23884420049566465
27.799999999999862        0.24465590398542864
27.81999999999987         0.2546727336626839
27.83999999999987         0.26947079226303033
27.859999999999868        0.2898886853459713
27.879999999999868        0.3169983268576743
27.899999999999874        0.35183200731893666
27.919999999999874        0.39428390307767747
27.939999999999873        0.4404536313029919
27.959999999999866        0.48166713673074674
27.97999999999987         0.5114340451396503
27.99999999999986         0.5273022195074519
28.019999999999865        0.5319577702895333
28.039999999999868        0.5273689469567892
28.059999999999867        0.5115121886318119
28.079999999999874        0.4817464472152161
28.099999999999866        0.440706420373816
28.11999999999986         0.3946736389242411
28.13999999999986         0.3521995010668972
28.159999999999854        0.31742380570897305
28.179999999999854        0.2903773555444463
28.199999999999857        0.2700300645299665
28.219999999999853        0.25530983201262625
28.239999999999853        0.24537787683273768
28.25999999999986         0.23966065571195383
28.27999999999986         0.23782884936811952
28.29999999999985         0.23977627228980192
28.319999999999858        0.24561213997228884
28.339999999999854        0.25566930414979
28.359999999999854        0.27052614392397706
28.37999999999985         0.2910290120573275
28.399999999999856        0.31824068728580557
28.419999999999856        0.3532108664802552
28.439999999999866        0.3958290089622582
28.459999999999855        0.4421799611164764
28.47999999999986         0.4835562817657257
28.499999999999858        0.5134416975832691
28.51999999999986         0.5293740421362199
28.539999999999857        0.5340492441067337
28.55999999999986         0.5294430617558383
28.579999999999853        0.5135242641547758
28.599999999999856        0.48364212274230645
28.61999999999986         0.4424419420210928
28.639999999999855        0.3962303242001148
28.659999999999847        0.3536471119261439
28.67999999999985         0.3186817989603503
28.699999999999843        0.2915313359716069
28.719999999999843        0.27110623685943747
28.739999999999846        0.25633021317378174
28.75999999999984         0.24636121209826942
28.779999999999838        0.24062346314962516
28.799999999999848        0.23878638505658517
28.819999999999844        0.24074342148894987
28.839999999999847        0.24660428468680648
28.859999999999843        0.2567032109708419
28.879999999999843        0.27162093970163614
28.899999999999842        0.2922072594446486
28.919999999999845        0.31955059126920676
28.93999999999984         0.3546963717011283
28.95999999999984         0.3974313438302648
28.97999999999985         0.44397013772843275
28.99999999999985         0.4855152185160113
29.01999999999985         0.5155234600516526
29.03999999999985         0.5315223202717058
29.059999999999846        0.536217949744151
29.079999999999846        0.5315939398366726
29.099999999999845        0.5156110940204017
29.11999999999984         0.4856084830329842
29.13999999999984         0.4442423616192413
29.159999999999844        0.39784517996893964
29.179999999999836        0.35509146165883976
29.199999999999836        0.32000792744178375
29.219999999999832        0.2927280965311819
29.239999999999835        0.2722222068715373
29.259999999999835        0.25738824011201517
29.279999999999834        0.2473807417999028
29.299999999999837        0.24162162512564633
29.319999999999833        0.2397789946199537
29.33999999999984         0.24174589846963176
29.359999999999832        0.24763254743322155
29.379999999999832        0.2577746080119408
29.39999999999983         0.27275526232068215
29.419999999999828        0.2934278450623852
29.43999999999983         0.32088530664771336
29.459999999999837        0.3561774625218734
29.47999999999983         0.39916805143796014
29.499999999999833        0.4458235045193713
29.519999999999843        0.48754344490808044
29.539999999999836        0.5176790884152496
29.559999999999835        0.5337470702778789
29.579999999999835        0.5384639317877139
29.599999999999838        0.5338213099236937
29.619999999999834        0.517771826196533
29.639999999999837        0.4876441868356611
29.65999999999983         0.4461060613028303
29.679999999999822        0.39951682015882023
29.699999999999832        0.35658675150704056
29.719999999999825        0.3213589403122717
29.739999999999824        0.293971816481803
29.75999999999982         0.2733767799838024
29.779999999999816        0.2584839382652769
29.799999999999812        0.24843660389104677
29.819999999999826        0.24265537718448016
29.839999999999826        0.24080700842082303
29.85999999999982         0.24278414255369982
29.879999999999825        0.24869750909066382
29.89999999999982         0.2588842559402273
29.919999999999828        0.2739301065160408
29.93999999999982         0.2946920909493654
29.95999999999982         0.32226788574532833
29.97999999999982         0.35771187117253556
29.99999999999982         0.4008873492993673
30.019999999999822        0.44773852129992286
30.039999999999832        0.48952310965304396
30.059999999999828        0.519911116770596
30.079999999999824        0.536049831601864
30.09999999999982         0.5407880703927277
30.119999999999827        0.5361257706019622
30.13999999999982         0.5200069773783971
30.15999999999982         0.489749716941554
30.179999999999815        0.44803347785533204
30.199999999999815        0.40124558406369315
30.21999999999982         0.3581332074611794
30.23999999999982         0.32275626339956687
30.25999999999981         0.2952536020333137
30.27999999999981         0.2745721055721809
30.299999999999812        0.25961518412859835
30.31999999999981         0.24952864367833502
30.339999999999808        0.2437244734904057
30.359999999999808        0.2418700711823039
30.379999999999814        0.24385766166672276
30.399999999999817        0.24979850571247325
30.419999999999817        0.26003127346756866
30.439999999999813        0.275144301246979
30.45999999999981         0.2959984245962249
30.479999999999812        0.3236961862131086
30.499999999999808        0.35929666381007974
30.51999999999981         0.4026627382150872
30.53999999999981         0.4497212829534529
30.55999999999981         0.49169201090008846
30.579999999999814        0.5221590624006768
30.599999999999813        0.538428473826642
30.619999999999813        0.543188990758311
30.63999999999981         0.538506316507145
30.659999999999815        0.5223157203161588
30.679999999999808        0.4919243556458779
30.699999999999804        0.450023982648084
30.719999999999803        0.4030308935050443
30.739999999999803        0.3597302603721844
30.75999999999981         0.32419930634734434
30.77999999999981         0.2965773016288681
30.7999999999998          0.2758064453532403
30.8199999999998          0.26078533957850303
30.8399999999998          0.2506544700008028
30.859999999999804        0.24482801343617222
30.879999999999804        0.24296717158569492
30.899999999999796        0.2449653171531607
30.919999999999803        0.2509342533576407
30.93999999999981         0.2612142138172427
30.959999999999802        0.27639622199202935
30.97999999999981         0.2973450284472683
30.9999999999998          0.32516818305510664
31.019999999999797        0.3609295986231362
31.0399999999998          0.4044917334084921
31.059999999999803        0.45176367059913264
31.0799999999998          0.4939260403482605
31.099999999999802        0.5245332011742108
31.119999999999806        0.5408777175941035
31.139999999999798        0.5456617488010003
31.159999999999798        0.5409584872106092
31.1799999999998          0.5246924704702866
31.199999999999797        0.49416244213780464
31.219999999999796        0.4520721300173631
31.239999999999796        0.40486794713344315
31.259999999999803        0.3613738696270979
31.279999999999795        0.32568467210379914
31.299999999999795        0.2979400193427362
31.319999999999794        0.2770772976027156
31.33999999999979         0.26199015922285507
31.35999999999979         0.25181525838907637
31.37999999999979         0.24596335861839186
31.39999999999979         0.24409658283478308
31.419999999999796        0.24610545305956702
31.439999999999802        0.2521031233849515
31.459999999999802        0.26243143775300626
31.4799999999998          0.27768417965667275
31.49999999999979         0.29873012121837217
31.51999999999979         0.32668195609785694
31.53999999999979         0.3626085663138353
31.55999999999979         0.4063719919574717
31.579999999999796        0.4538630980116305
31.59999999999979         0.49622243418368767
31.619999999999788        0.5269737268668392
31.639999999999787        0.5433965029811301
31.659999999999794        0.5482043672120496
31.67999999999978         0.5434798029047654
31.699999999999783        0.527138085574594
31.719999999999775        0.4964663275340153
31.73999999999978         0.45418121300766495
31.75999999999979         0.40675964541748766
31.77999999999978         0.363066009954984
31.799999999999766        0.32721356287301046
31.819999999999773        0.2993424471584152
31.83999999999978         0.27838505739034836
31.859999999999783        0.2632298824607066
31.879999999999775        0.25300959565863396
31.899999999999775        0.24713226334266192
31.919999999999774        0.24525847223816755
31.939999999999774        0.24727907357450893
31.95999999999978         0.2533053832808747
31.979999999999766        0.26368329890460696
31.999999999999773        0.27900863473043447
32.019999999999776        0.3001542936943015
32.03999999999977         0.32823825461507694
32.05999999999978         0.3643345068933743
32.079999999999764        0.4083046660593563
32.099999999999774        0.456020889617276
32.11999999999978         0.4985825537156138
32.13999999999979         0.5294818906475398
32.159999999999776        0.5459849813259107
32.17999999999978         0.5508170952556972
32.19999999999978         0.5460701467459093
32.21999999999978         0.5297082789274513
32.239999999999775        0.4988319833253179
32.25999999999977         0.45634643784012563
32.27999999999976         0.40870185621536653
32.29999999999977         0.36480377552819254
32.319999999999766        0.3287841256765095
32.33999999999977         0.3007834896865528
32.359999999999765        0.27972916949823023
32.37999999999977         0.2645043675358055
32.399999999999764        0.25423765943868093
32.419999999999774        0.24833435641850626
32.43999999999976         0.2464534851071889
32.459999999999766        0.24848542535111154
32.47999999999977         0.2545436753271402
32.499999999999766        0.2649731205490777
32.51999999999976         0.28037104536908847
32.539999999999765        0.30161924875380103
32.55999999999977         0.3298390661999999
32.57999999999977         0.3661097427434849
32.59999999999977         0.41029246265293356
32.619999999999784        0.45824015872854984
32.63999999999977         0.5010098901249121
32.659999999999776        0.5320615203265656
32.67999999999977         0.5486473374569381
32.699999999999775        0.5535046979020583
32.71999999999977         0.5487353847316029
32.73999999999976         0.5322940719139349
32.75999999999977         0.5013922784278388
32.77999999999977         0.45857697841305617
32.79999999999976         0.41070294597012375
32.81999999999976         0.3665942654139804
32.83999999999976         0.3304024677462299
32.85999999999975         0.30226864111587576
32.879999999999754        0.28111481144468875
32.89999999999975         0.2658187069914476
32.919999999999746        0.255504634190373
32.93999999999975         0.24957504001892167
32.95999999999975         0.24768734697941747
32.97999999999975         0.24973145779271796
32.999999999999744        0.25582148667168597
33.019999999999754        0.2663040774910497
33.03999999999976         0.2817806277102324
33.059999999999754        0.30313404332305316
33.07999999999976         0.33149458383704133
33.09999999999975         0.3679458201103504
33.119999999999756        0.41234849060508655
33.13999999999975         0.46053567638703613
33.15999999999977         0.5035207137670182
33.17999999999975         0.5347299155790836
33.199999999999754        0.5514011753570358
33.21999999999976         0.5562840742194205
33.23999999999975         0.5514902748518569
33.25999999999975         0.5349647716933885
33.27999999999975         0.5039070903970617
33.29999999999976         0.4608832256651541
33.31999999999975         0.41268730374286633
33.33999999999976         0.3684430019707563
33.359999999999744        0.33207475856827606
33.37999999999975         0.30380442579895567
33.39999999999975         0.28254865508596216
33.41999999999974         0.26717961721597594
33.43999999999974         0.2568172657843343
33.45999999999974         0.25086109822886826
33.47999999999974         0.2489669052681438
33.49999999999974         0.25102412795738505
33.51999999999974         0.25714754275156687
33.539999999999736        0.2676856331152568
33.55999999999974         0.2832429341839607
33.57999999999973         0.3047022803654166
33.599999999999746        0.33321371137892714
33.61999999999974         0.36985248855407726
33.63999999999974         0.4144835594724667
33.659999999999734        0.46291951970367606
33.679999999999744        0.5061284637373009
33.69999999999976         0.5375017487246837
33.71999999999974         0.5542622838590657
33.739999999999746        0.5591722753187354
33.75999999999975         0.5543537926906176
33.77999999999975         0.5377418188833275
33.79999999999974         0.5065229980275503
33.819999999999744        0.4632774194634512
33.83999999999975         0.41483532233304227
33.859999999999744        0.3703084548737928
33.87999999999975         0.3338142204360542
33.89999999999973         0.305401665175728
33.91999999999973         0.28403969757184616
33.93999999999973         0.2685946782437702
33.95999999999973         0.25818202147881847
33.97999999999973         0.25219811832279615
33.99999999999973         0.2502970236489347
34.01999999999973         0.25236768780296326
34.03999999999973         0.2585255706376017
34.05999999999975         0.26912105948385406
34.07999999999973         0.284761939035565
34.099999999999724        0.3063357596755222
34.119999999999735        0.3349763615932396
34.13999999999972         0.3717736825754656
34.15999999999973         0.4166994913106051
34.17999999999973         0.4653934232199795
34.19999999999973         0.5088348653601467
34.21999999999974         0.5403787640076516
34.239999999999746        0.5572324163327207
34.259999999999735        0.5621710179629859
34.27999999999973         0.5573275326822855
34.299999999999734        0.5406265934857257
34.31999999999973         0.5092411746016484
34.339999999999726        0.46576587358903915
34.35999999999973         0.417068112976585
34.379999999999725        0.3723074190395367
34.39999999999972         0.33560004323628445
34.41999999999974         0.3070621504102076
34.43999999999973         0.28558996698415434
34.459999999999724        0.27006615581927923
34.47999999999971         0.259601412985826
34.49999999999973         0.2535889033620449
34.519999999999726        0.2516808439335772
34.53999999999972         0.2537656609946206
34.55999999999971         0.25995953152275264
34.57999999999972         0.2706148304875652
34.59999999999974         0.2863427289483742
34.61999999999972         0.3080356895190511