% Model:              Untitled.mph
% Version:            COMSOL 5.6.0.280
% Date:               Sep 24 2021, 10:24
% Dimension:          1
% Nodes:              1015
% Expressions:        1
% Description:        线图
% cln1x                   Height
49.2                      0.33203862612003565
49.21999999999993         0.3316102459955727
49.239999999999924        0.336346148333611
49.25999999999991         0.3466243566436082
49.27999999999991         0.36315444181114326
49.2999999999999          0.38700543933822995
49.319999999999894        0.4195681718474747
49.33999999999989         0.4622103403550772
49.35999999999989         0.5148953864486004
49.379999999999875        0.5728135919611169
49.399999999999885        0.6249985257451284
49.41999999999987         0.6629114808503285
49.439999999999856        0.68319942569662
49.459999999999845        0.689027247479706
49.47999999999983         0.6827755633575439
49.49999999999984         0.6619215876253833
49.519999999999825        0.6231871993865581
49.53999999999982         0.5698385280231661
49.55999999999982         0.5103796858105919
49.57999999999979         0.4558247755635367
49.5999999999998          0.41105135971999057
49.61999999999979         0.37614107709843964
49.63999999999978         0.3497421133963377
49.65999999999978         0.3304546414239487
49.67999999999978         0.3171800989469126
49.69999999999978         0.309161246955202
49.71999999999976         0.3059544905898347
49.73999999999975         0.3074027475529926
49.759999999999735        0.3136221996349973
49.77999999999974         0.32501333394562104
49.799999999999734        0.3422868204046215
49.819999999999716        0.36649029792003895
49.83999999999971         0.39897100853833906
49.85999999999971         0.4410403116602278
49.8799999999997          0.49263392886416596
49.89999999999969         0.5490521185320232
49.91999999999969         0.5996738362929906
49.939999999999685        0.6363521997875531
49.959999999999695        0.6559428201227144
49.97999999999967         0.6616069888449356
49.99999999999967         0.6557039441161946
50.01999999999966         0.6358190971639546
50.03999999999965         0.5987384528108414
50.05999999999965         0.5475735170291789
50.07999999999963         0.4904544269241271
50.09999999999962         0.4380273165703229
50.11999999999962         0.39502609747910106
50.13999999999961         0.3615382514522934
50.159999999999606        0.33626323818199394
50.1799999999996          0.317854367506166
50.19999999999959         0.3052561333903622
50.21999999999959         0.297742633382355
50.239999999999576        0.29489080802425105
50.259999999999586        0.29655358499075046
50.27999999999955         0.3028512408806402
50.29999999999957         0.3141742208269918
50.31999999999955         0.33121652666552587
50.33999999999955         0.35499749835912037
50.359999999999545        0.3868258073802562
50.379999999999534        0.42797175030446366
50.39999999999952         0.47835948028895264
50.41999999999952         0.5333870985743977
50.43999999999951         0.5826933053312827
50.459999999999496        0.6183810786260242
50.479999999999514        0.6374197935784365
50.499999999999496        0.6429275888711461
50.51999999999951         0.6372208109457782
50.53999999999949         0.6178810145873559
50.55999999999949         0.5819576831515104
50.579999999999465        0.5322606268335199
50.59999999999947         0.47674240758998393
50.61999999999946         0.4257779371592837
50.63999999999944         0.38398914625257285
50.659999999999435        0.3514657016305675
50.67999999999942         0.3269435319851897
50.699999999999406        0.3091135933794234
50.71999999999941         0.296950537263124
50.73999999999941         0.28975008272038766
50.759999999999394        0.2871029860713886
50.77999999999939         0.2888689778029535
50.799999999999386        0.2951667640096393
50.81999999999938         0.3063831962720961
50.83999999999938         0.3232002298463962
50.859999999999374        0.3466103738833282
50.879999999999356        0.37789557718245215
50.89999999999936         0.41829591389855114
50.91999999999935         0.46772936535610243
50.939999999999344        0.5216745111711779
50.959999999999354        0.569973145926513
50.97999999999935         0.6049110558094807
50.99999999999935         0.6235374675457014
51.01999999999934         0.6289281807813469
51.03999999999933         0.6233623420824167
51.05999999999933         0.6044716468562821
51.07999999999932         0.5692165959721841
51.09999999999929         0.5207518968804508
51.119999999999294        0.4664360477119794
51.139999999999276        0.41657187436010834
51.15999999999928         0.3756927768949591
51.17999999999926         0.34388926536796305
51.19999999999925         0.31992487224419774
51.219999999999224        0.302519042526878
51.23999999999922         0.29066913056800325
51.25999999999921         0.28368699355486904
51.27999999999921         0.2811735277523547
51.29999999999921         0.2829932064192824
51.3199999999992          0.28926437008741185
51.33999999999919         0.3003682979978739
51.35999999999918         0.3169744391042729
51.37999999999918         0.3400618080580915
51.399999999999174        0.37088553961962667
51.41999999999919         0.4106634011388256
51.43999999999917         0.4593099422405264
51.45999999999917         0.5123715077455625
51.479999999999166        0.5598557316056446
51.49999999999916         0.5941917808464445
51.51999999999916         0.612489825473502
51.53999999999914         0.6177872490032829
51.55999999999914         0.6123311614171547
51.57999999999914         0.5937935471641804
51.59999999999913         0.5591782801836267
51.61999999999912         0.5115765143404506
51.639999999999105        0.4583118324542716
51.65999999999908         0.40923697880129467
51.679999999999076        0.369082395349964
51.69999999999906         0.3378505071231978
51.71999999999908         0.31432684234128894
51.73999999999906         0.29725355792198616
51.75999999999906         0.285646050169466
51.779999999999056        0.2788289267876306
51.799999999999045        0.2764109973327412
51.819999999999034        0.27826028834569133
51.83999999999902         0.2844945585265598
51.85999999999902         0.2954902785306904
51.879999999999015        0.31190748292718473
51.899999999999           0.33471564217987027
51.919999999999           0.3651364438687754
51.939999999999           0.4043829873777667
51.959999999998985        0.45236298429682836
51.97999999999898         0.5046808126572051
51.99999999999898         0.5514835213874316
52.019999999998994        0.5853180158550066
52.03999999999898         0.6033436394664622
52.05999999999898         0.6085637136967524
52.079999999998975        0.6031976614968397
52.099999999998964        0.5849510043963337
52.11999999999895         0.5508647928716106
52.139999999998935        0.5039815553794228
52.15999999999893         0.451511524260376
52.17999999999892         0.4032295829600498
52.199999999998894        0.3636152701983585
52.21999999999888         0.33285832814069877
52.23999999999888         0.30970042866878483
52.25999999999886         0.292902527628845
52.27999999999887         0.28149494948168297
52.29999999999886         0.274812838381736
52.31999999999887         0.27247152398057106
52.33999999999885         0.27434193053804445
52.35999999999885         0.2805412778138159
52.37999999999884         0.2914419897526666
52.39999999999883         0.30769623328504325
52.41999999999882         0.3302614315274183
52.43999999999881         0.3603669812723175
52.45999999999881         0.3992010377612037
52.4799999999988          0.44655679276141486
52.499999999998806        0.49824768641300976
52.51999999999881         0.5444770196041863
52.53999999999882         0.5778901828906188
52.55999999999881         0.5956872787571743
52.57999999999881         0.6008424341402571
52.59999999999881         0.595551418718456
52.61999999999878         0.5775478508292525
52.639999999998786        0.5439044523574812
52.65999999999877         0.49762322756993665
52.67999999999874         0.4458198145498031
52.69999999999873         0.3981506339383263
52.71999999999871         0.35906621799561333
52.739999999998716        0.3286845141658849
52.75999999999871         0.3058335372095629
52.7799999999987          0.28926651663721226
52.7999999999987          0.2780262730588539
52.81999999999868         0.2714567669547846
52.839999999998675        0.2691787777616869
52.859999999998664        0.2710656420715892
52.87999999999867         0.2772341093043011
52.89999999999865         0.28805319447392436
52.91999999999867         0.304168468127294
52.93999999999864         0.32652726453605957
52.959999999998644        0.35634569833713464
52.97999999999864         0.3947985912105712
52.999999999998614        0.4417642319125332
53.019999999998646        0.49284116763235586
53.03999999999865         0.5385869791229069
53.05999999999862         0.5716450266904288
53.07999999999864         0.5892495249135491
53.099999999998644        0.5943498230873873
53.119999999998626        0.5891215094906489
53.13999999999862         0.5713217679447032
53.15999999999861         0.5380502631410453
53.1799999999986          0.49227498996466723
53.199999999998575        0.44103220529519166
53.219999999998564        0.39387834055258375
53.23999999999854         0.3552192686301936
53.25999999999853         0.3251772454762293
53.27999999999852         0.3025773178104043
53.29999999999852         0.2862042066247409
53.31999999999851         0.2751028230150081
53.339999999998504        0.2686257032264297
53.35999999999849         0.2663981625071358
53.37999999999848         0.2682955031801748
53.39999999999848         0.2744339965713906
53.419999999998474        0.2851796830819021
53.43999999999846         0.30117245392413444
53.459999999998466        0.3233510139992601
53.47999999999847         0.35292013558888147
53.49999999999845         0.3910432936001024
53.519999999998454        0.4375983800961305
53.539999999998464        0.4882161281556065
53.55999999999846         0.5335519218854462
53.57999999999846         0.5663060123953101
53.599999999998474        0.5837461535049395
53.61999999999846         0.5887997460732497
53.63999999999846         0.5836247536777445
53.65999999999847         0.5659985614861808
53.67999999999844         0.5330442751288014
53.69999999999843         0.4877009231935354
53.719999999998386        0.43693717021843864
53.73999999999839         0.3902235964265905
53.75999999999837         0.3519275991213357
53.77999999999837         0.3221709066233579
53.799999999998334        0.29978954791073564
53.819999999998345        0.2835773994977357
53.83999999999832         0.27259499454057584
53.85999999999833         0.2661945450624248
53.879999999998326        0.2640073947015583
53.8999999999983          0.26591046201304364
53.9199999999983          0.27201952378424094
53.9399999999983          0.2826979633493948
53.95999999999828         0.29858066599807226
53.97999999999828         0.32059877537962594
53.99999999999827         0.3499471693183585
54.01999999999827         0.38777945865678976
54.03999999999829         0.43397342846616327
54.05999999999828         0.4841928029928418
54.07999999999829         0.5290374647218733
54.09999999999829         0.5615952393220048
54.119999999998306        0.5789547927548612
54.139999999998295        0.5839686392667642
54.15999999999829         0.5788405680594053
54.17999999999829         0.5613657225843115
54.19999999999827         0.5286876660463734
54.21999999999824         0.483720221284962
54.23999999999822         0.43337308856547907
54.2599999999982          0.38704217503180455
54.27999999999818         0.3490614557276079
54.29999999999818         0.3195522183832778
54.31999999999817         0.2973600520932497
54.33999999999815         0.2812887157120948
54.359999999998145        0.27040483503631774
54.379999999998155        0.2640711022709511
54.39999999999813         0.26191712867729255
54.41999999999813         0.26382287291328066
54.43999999999812         0.2699036362977209
54.45999999999811         0.2805204345949858
54.479999999998114        0.2963037302963039
54.499999999998096        0.31817801360169196
54.51999999999809         0.347329495175609
54.539999999998095        0.3849031848914174
54.55999999999809         0.43077679071295766
54.57999999999809         0.4806428264415731
54.599999999998126        0.5251667057902204
54.61999999999813         0.5574888949480244
54.63999999999813         0.5747200954085185
54.65999999999812         0.5796985854695199
54.67999999999811         0.5746110686047817
54.69999999999811         0.5572690326711742
54.71999999999809         0.5248342869830046
54.73999999999806         0.4801983815811325
54.75999999999804         0.4302190933546398
54.77999999999802         0.3842259625759232
54.799999999998           0.3465231658105003
54.819999999998           0.3172315764269899
54.839999999997985        0.29520524486069255
54.859999999997974        0.2792566751065715
54.87999999999797         0.26845937313657264
54.89999999999795         0.262179955883931
54.91999999999795         0.26005341545500965
54.93999999999795         0.26195833097193727
54.95999999999793         0.2680103458340373
54.97999999999795         0.27856828233257463
54.99999999999792         0.2942585638712105
55.01999999999792         0.3159996341864517
55.03999999999791         0.3449698535443607
55.05999999999792         0.3823064956286059
55.0799999999979          0.42788735932110067
55.09999999999792         0.4774314081526229
55.11999999999795         0.5216637645476367
55.13999999999796         0.5537722514986785
55.15999999999795         0.5708881249288593
55.17999999999795         0.5758339037079754
55.19999999999795         0.5707829308927634
55.219999999997945        0.5535608042773956
55.23999999999791         0.5213458706042805
55.25999999999789         0.4770095218106919
55.27999999999787         0.4273625900353817
55.299999999997844        0.3816744591257024
55.319999999997826        0.3442222925230992
55.33999999999783         0.3151265773397167
55.359999999997804        0.29324901429845496
55.3799999999978          0.2774100070158421
55.399999999997796        0.266689271353495
55.41999999999778         0.260457728997604
55.43999999999777         0.2583529122690009
55.45999999999777         0.2602551918967439
55.47999999999777         0.2662771791692133
55.499999999997755        0.2767781218922199
55.51999999999775         0.29237984204565654
55.53999999999775         0.31399516708404773
55.55999999999773         0.342795181711354
55.57999999999774         0.3799100224784311
55.59999999999773         0.42521772015459053
55.619999999997745        0.4744621198558857
55.639999999997755        0.518423997826656
55.65999999999777         0.5503346382516143
55.6799999999978          0.567344113167086
55.699999999997765        0.5722598710809035
55.719999999997775        0.5672429245717081
55.73999999999777         0.5501317741400081
55.75999999999774         0.518120055407706
55.77999999999772         0.47406048320350336
55.7999999999977          0.42472039832877656
55.81999999999766         0.379313638445222
55.83999999999766         0.34209245270772887
55.85999999999764         0.31317697150529616
55.87999999999764         0.29143594999018874
55.899999999997625        0.2756970704420794
55.91999999999762         0.26504576020464293
55.9399999999976          0.2588568960025494
55.959999999997606        0.25677034863053244
55.979999999997595        0.2586673313754288
55.99999999999759         0.26466153687804117
56.01999999999758         0.2751052953412649
56.039999999997576        0.2906217943099818
56.05999999999757         0.3121169457100991
56.07999999999756         0.34075501737919295
56.09999999999758         0.3776594790983222
56.11999999999755         0.4227086282899787
56.13999999999757         0.47166969663503944
56.15999999999758         0.5153757630251279
56.17999999999758         0.54709918844393
56.19999999999759         0.5640077465090674
56.2199999999976          0.5688947684830011
56.2399999999976          0.5639103890089929
56.25999999999758         0.5469620671206453
56.279999999997585        0.515207817547175
56.29999999999754         0.4712825700112614
56.3199999999975          0.42223105437771663
56.33999999999749         0.3770888077949557
56.35999999999746         0.3400845653833898
56.379999999997445        0.3113381059547328
56.39999999999746         0.2897248221618086
56.419999999997444        0.27407923988828214
56.43999999999745         0.2634921458137412
56.45999999999743         0.2573421141099992
56.47999999999742         0.25527119581020313
56.499999999997414        0.2571613895238725
56.51999999999742         0.26312580552228926
56.5399999999974          0.27351695850236535
56.559999999997395        0.2889493603051146
56.57999999999739         0.3103268001879624
56.59999999999738         0.3388083507214594
56.619999999997376        0.37550997422292515
56.63999999999738         0.4203102961634147
56.6599999999974          0.4689991237333117
56.679999999997406        0.5124597905942475
56.69999999999743         0.5440038176037129
56.71999999999744         0.5608158079855097
56.73999999999744         0.5656753439977449
56.759999999997454        0.5607212122746504
56.77999999999741         0.5438720804123092
56.79999999999741         0.5123001319531486
56.819999999997364        0.4686294110153052
56.83999999999734         0.41984901255058793
56.85999999999731         0.374959906669297
56.87999999999729         0.338163264779802
56.89999999999727         0.30957850806726
56.919999999997266        0.2880873802143941
56.93999999999725         0.2725309572521866
56.95999999999725         0.2620051526814747
56.97999999999725         0.2558920729254972
56.99999999999724         0.25383584760603406
57.01999999999723         0.2557192340913283
57.03999999999723         0.2616548079920195
57.05999999999722         0.27199319657017657
57.079999999997206        0.28734560636811146
57.0999999999972          0.3086064047825393
57.1199999999972          0.33694209183252705
57.13999999999719         0.37344886283724105
57.15999999999719         0.41801023316465874
57.17999999999721         0.46643768200928865
57.19999999999723         0.5096627687488817
57.219999999997256        0.5410345898312862
57.239999999997266        0.5577538887302231
57.25999999999726         0.5625870452043953
57.27999999999726         0.5576619510034527
57.29999999999725         0.5409080192479278
57.31999999999723         0.5095110029259518
57.33999999999719         0.466079733191693
57.35999999999715         0.4174837567001178
57.379999999997125        0.37286053959417376
57.39999999999711         0.33632057470746507
57.41999999999709         0.3078909911727799
57.43999999999708         0.28651708888812044
57.45999999999707         0.27104622137389844
57.47999999999708         0.26057921540200735
57.49999999999706         0.25450156004811203
57.519999999997054        0.25245936964241367
57.53999999999705         0.25433612140237966
57.55999999999703         0.26024389158714933
57.579999999997035        0.2705315128749674
57.59999999999704         0.28580698991943215
57.61999999999701         0.3069600147622603
57.63999999999703         0.33512905226935824
57.659999999997           0.3714703256456091
57.679999999997015        0.4158018782955098
57.69999999999704         0.4639781931238837
57.71999999999706         0.5069774196148513
57.73999999999709         0.5381844415087526
57.759999999997085        0.5548153793243292
57.779999999997095        0.5596236271582536
57.799999999997084        0.5547265936503942
57.819999999997066        0.5380640935998408
57.83999999999705         0.5068349503668838
57.85999999999703         0.4636334294174465
57.87999999999698         0.4152920222585003
57.89999999999696         0.37090170747166706
57.91999999999693         0.3345306587832142
57.93999999999692         0.30627181533839504
57.9599999999969          0.28501032420820643
57.9799999999969          0.26962145786749053
57.99999999999689         0.2592107544871861
58.0199999999969          0.2531669456057914
58.03999999999688         0.25113804518360694
58.05999999999687         0.2530082137955831
58.079999999996865        0.25888904886366404
58.09999999999686         0.26912768873871645
58.11999999999686         0.28432908193717094
58.13999999999685         0.30537842786547936
58.15999999999685         0.3334084585800117
58.17999999999683         0.36951253364483727
58.19999999999685         0.41360052436413913
58.21999999999686         0.4616152060186082
58.23999999999687         0.5043967004307823
58.25999999999689         0.5354444896690234
58.2799999999969          0.5519895812131601
58.299999999996906        0.5567732043068911
58.31999999999691         0.5519026353325035
58.3399999999969          0.5353275784747356
58.35999999999687         0.5042595192792938
58.37999999999685         0.46127876648299615
58.39999999999681         0.41318225730209684
58.41999999999679         0.3690160591715165
58.43999999999676         0.3328286714046857
58.459999999996754        0.304708284334157
58.479999999996714        0.28355924818656014
58.49999999999673         0.2682489860437739
58.51999999999671         0.25789208460955415
58.53999999999671         0.2518803907526545
58.5599999999967          0.24986373563772638
58.579999999996694        0.25172691956297477
58.59999999999669         0.2575810548328433
58.61999999999667         0.26777163346977584
58.63999999999666         0.28290065794630503
58.659999999996664        0.3038489557712108
58.67999999999666         0.3317436724405028
58.69999999999666         0.3676727571082267
58.71999999999667         0.4115463039960246
58.73999999999668         0.45933125836697153
58.75999999999669         0.5018968714446207
58.77999999999672         0.5327907779759665
58.79999999999672         0.5492532145714141
58.81999999999676         0.5540132554683507
58.83999999999674         0.5491682452378487
58.85999999999673         0.5326775554534809
58.879999999996706        0.5017651715917241
58.89999999999668         0.45899800172460953
58.919999999996634        0.41113870006336023
58.939999999996594        0.36718965717755214
58.959999999996576        0.3311801844539798
58.97999999999656         0.30319824830391034
58.999999999996554        0.28215474547490965
59.019999999996536        0.2669214084216499
59.03999999999652         0.25661434014670736
59.059999999996535        0.25063349492810716
59.07999999999652         0.24862839087541483
59.09999999999652         0.25048443856877667
59.1199999999965          0.25631226405282465
59.13999999999649         0.26645574758529733
59.15999999999649         0.2815140404620612
59.17999999999649         0.30236373186758875
59.19999999999647         0.33012651600140874
59.21999999999648         0.36588506914192215
59.239999999996485        0.4095497333411376
59.259999999996516        0.4571062030067772
59.27999999999654         0.499589702033811
59.29999999999656         0.5302114509300612
59.319999999996575        0.5465938696697575
59.33999999999659         0.5513312344623257
59.35999999999657         0.5465112103361716
59.379999999996585        0.5301026133865238
59.39999999999653         0.4993416019540872
59.41999999999649         0.45678208510096757
59.43999999999646         0.4091533698151592
59.45999999999642         0.36541541532991884
59.479999999996394        0.32957890185497596
59.49999999999639         0.3017315786100499
59.519999999996365        0.28078961157044935
59.53999999999636         0.2656301670394594
59.55999999999636         0.25537518909463597
59.57999999999635         0.2494228073775305
59.59999999999634         0.24742898874897576
59.61999999999635         0.24927815905085035
59.63999999999632         0.2550804696558117
59.65999999999634         0.26517822970480226
59.67999999999632         0.28016782679339863
59.69999999999632         0.30092176649743857
59.719999999996304        0.32855646010935224
59.739999999996314        0.36414945847963665
59.759999999996325        0.4076113385922437
59.77999999999634         0.4549459680347607
59.79999999999638         0.497229909228877
59.8199999999964          0.5277648449777758
59.83999999999641         0.5440125557683769
59.85999999999641         0.5487270246875748
59.87999999999642         0.5439312114253537
59.89999999999641         0.5276022768703564
59.91999999999637         0.4969882408360107
59.93999999999633         0.45463041283878186
59.95999999999629         0.40722573588634603
59.97999999999626         0.36369291462538306
59.99999999999624         0.328024502006452
60.01999999999622         0.30030802916439825
60.03999999999621         0.2794647801344029
60.0599999999962          0.26437720077633325
60.07999999999619         0.25417137113624827
60.099999999996186        0.24824905890443155
60.11999999999618         0.24626550798705274
60.139999999996164        0.2481081003095428
60.15999999999617         0.2538857380858293
60.17999999999618         0.26393920403803534
60.19999999999615         0.2788622025149519
60.219999999996155        0.29952329701535046
60.239999999996144        0.3270338057579622
60.259999999996154        0.36246631111526967
60.27999999999616         0.405731603647301
60.29999999999619         0.452851117578576
60.319999999996234        0.494941437804864
60.339999999996245        0.5253357907746125
60.35999999999626         0.5415081937533661
60.37999999999626         0.5462011328964693
60.39999999999626         0.5414288153349438
60.41999999999627         0.5251771419911222
60.439999999996225        0.494705696158215
60.459999999996185        0.4525435700915381
60.47999999999613         0.40535631301400554
60.4999999999961          0.3620225903288182
60.51999999999608         0.3265173553224888
60.53999999999606         0.2989279226785255
60.559999999996045        0.2781805402717329
60.57999999999605         0.263162775515458
60.599999999996044        0.2530047214267909
60.619999999996026        0.24711090621259865
60.63999999999602         0.24513817982025732
60.659999999996           0.24697370172124963
60.679999999996           0.252728304693796
60.69999999999602         0.26273891100755264
60.71999999999599         0.27759741176130087
60.739999999996           0.2981685487315055
60.75999999999599         0.3255587277994761
60.77999999999599         0.3608357255035799
60.799999999996004        0.40391053818706485
60.81999999999602         0.4508216519897498
60.83999999999608         0.49272447236494055
60.85999999999609         0.5229827449997724
60.879999999996116        0.5390823026654404
60.89999999999611         0.5437544613421663
60.9199999999961          0.5390039824420162
60.93999999999608         0.5228277800848407
60.95999999999607         0.49249434912055867
60.97999999999602         0.45052179208613957
60.99999999999598         0.40354531300798624
61.019999999995946        0.3604046762042506
61.03999999999592         0.32505770415311014
61.05999999999591         0.29759148976838595
61.079999999995884        0.27693709698861024
61.09999999999588         0.261987062341501
61.11999999999587         0.25187537144136024
61.139999999995865        0.24600923004283223
61.15999999999586         0.24404705011183436
61.17999999999585         0.2458765372619538
61.19999999999585         0.2516065243090349
61.21999999999585         0.2615771940696774
61.23999999999584         0.27637321084541133
61.25999999999584         0.2968571622157171
61.27999999999583         0.3241306927590913
61.29999999999584         0.3592569358412756
61.319999999995844        0.402147110724547
61.33999999999587         0.44885636177044946
61.35999999999591         0.49057787268939174
61.379999999995924        0.5207047590578511
61.39999999999594         0.5367341765103387
61.419999999995945        0.5413863822047189
61.43999999999595         0.5366576771164091
61.45999999999593         0.5204967047570856
61.479999999995904        0.49023291356241055
61.49999999999586         0.44856408714485035
61.51999999999582         0.401791874692557
61.53999999999581         0.35883851471108186
61.55999999999577         0.32364506626070044
61.57999999999574         0.2962983798321202
61.599999999995745        0.2757341977104253
61.61999999999572         0.2608498836897237
61.63999999999572         0.25078320399337284
61.659999999995705        0.24494396583407826
61.679999999995694        0.2429920998808134
61.6999999999957          0.24481584553166666
61.71999999999568         0.2505236234068441
61.739999999995675        0.2604521913537689
61.75999999999567         0.2751898602418247
61.77999999999567         0.29558952927701476
61.79999999999567         0.3227502634714994
61.81999999999567         0.35773072781464027
61.839999999995676        0.4004423762478103
61.85999999999571         0.44695648248652003
61.87999999999576         0.48850278665869035
61.899999999995785        0.5185027663598466
61.91999999999581         0.5344644978386746
61.939999999995806        0.5390975036844134
61.959999999995794        0.5343899008982861
61.97999999999578         0.5182987359627548
61.99999999999575         0.4881641001685113
62.01999999999572         0.44666706445942717
62.039999999995665        0.40009740387725723
62.059999999995625        0.35732512920220777
62.07999999999561         0.322280138117057
62.09999999999558         0.29504904941430077
62.119999999995585        0.27457212541387094
62.13999999999557         0.2597513870981968
62.159999999995556        0.24972825009158786
62.17999999999555         0.24391504013813337
62.199999999995555        0.2419731629899906
62.21999999999555         0.24379137565528552
62.23999999999553         0.24947770012577022
62.25999999999553         0.25936755223350105
62.279999999995525        0.2740457750432124
62.299999999995514        0.2943694413983561
62.31999999999551         0.32141678876507057