% Model:              Untitled.mph
% Version:            COMSOL 5.6.0.280
% Date:               Sep 24 2021, 10:24
% Dimension:          1
% Nodes:              994
% Expressions:        1
% Description:        线图
% cln1x                   Height
49.24999999999999         0.29902506205423873
49.260000000000076        0.2983296758836983
49.280000000000086        0.29929114329269146
49.300000000000104        0.30349186136249323
49.32000000000011         0.3112021698337517
49.34000000000012         0.3228815367539255
49.36000000000011         0.33921585860310377
49.38000000000013         0.3611661309235834
49.400000000000134        0.39000988873096165
49.420000000000144        0.4273043628939269
49.440000000000154        0.47453520750739653
49.460000000000164        0.5318088667421464
49.48000000000015         0.5938727093641966
49.50000000000016         0.6495541802771276
49.520000000000174        0.6901990739743387
49.540000000000205        0.712111371883791
49.560000000000194        0.7184532233053713
49.58000000000019         0.7117792170319707
49.60000000000019         0.6895110682326744
49.62000000000021         0.6483473313458911
49.6400000000002          0.5917073229546123
49.66000000000021         0.5285028612183118
49.680000000000234        0.47009296731700734
49.70000000000021         0.4214683585546842
49.72000000000022         0.3826663276050402
49.74000000000024         0.35221553511001086
49.760000000000254        0.3285609473544454
49.78000000000025         0.31042276916875905
49.80000000000025         0.2968236539106483
49.82000000000027         0.2870532402798731
49.840000000000266        0.28061983488155384
49.86000000000028         0.27721275923071204
49.88000000000028         0.27667779777413276
49.90000000000029         0.2790051612046128
49.92000000000031         0.28432961459550915
49.940000000000296        0.29294225157421266
49.96000000000031         0.3053099332168825
49.98000000000032         0.32210791216614154
50.00000000000033         0.34427752995002653
50.02000000000034         0.37307668712562253
50.04000000000033         0.410027033228938
50.060000000000365        0.4565730511103793
50.08000000000035         0.5126448335144628
50.10000000000036         0.5732463075020657
50.12000000000035         0.6273954435997333
50.140000000000356        0.6668054417642869
50.160000000000366        0.6879770296524362
50.18000000000036         0.694118093038462
50.20000000000038         0.6877754069096481
50.22000000000038         0.6664353175245032
50.240000000000386        0.6267942852378632
50.260000000000396        0.5721045161073679
50.280000000000406        0.511018619069845
50.300000000000416        0.45438317263385636
50.320000000000405        0.40721721730384974
50.34000000000043         0.36961009809379947
50.36000000000043         0.34012955457470145
50.38000000000044         0.3172582981884611
50.400000000000446        0.29974860579780266
50.42000000000046         0.2866536578666589
50.44000000000047         0.27728597571402613
50.46000000000046         0.27117047984606824
50.48000000000047         0.26800795629908747
50.500000000000476        0.2676512414458538
50.520000000000486        0.27009349208336514
50.54000000000049         0.2754678381339325
50.56000000000051         0.2840566706873468
50.58000000000051         0.2963207640363224
50.60000000000052         0.3129269543501767
50.62000000000053         0.33479902313332016
50.640000000000526        0.36315770847653717
50.66000000000054         0.39949062611765374
50.68000000000056         0.44520494539198063
50.70000000000054         0.5002151415184392
50.72000000000055         0.5595888541743749
50.740000000000556        0.6125421185236093
50.76000000000056         0.6510232633849846
50.78000000000056         0.6716488470137005
50.800000000000566        0.6776282388619582
50.82000000000058         0.6714810994580389
50.84000000000057         0.6506654106991498
50.860000000000575        0.6119543565372887
50.88000000000058         0.5587225029380956
50.9000000000006          0.4990136788548697
50.92000000000062         0.44361903813234294
50.94000000000062         0.3974849583967781
50.96000000000063         0.36070822037893946
50.980000000000636        0.33188858313343084
51.00000000000064         0.3095417214270177
51.02000000000065         0.2924473120312943
51.04000000000065         0.27967966763325547
51.06000000000068         0.2705669878604027
51.080000000000666        0.26464541108346024
51.10000000000067         0.2616234912756646
51.12000000000067         0.26135776566711527
51.14000000000069         0.2638436071233626
51.16000000000069         0.26921304158391707
51.1800000000007          0.2777462192390934
51.20000000000071         0.2898940790808341
51.22000000000071         0.306313418040598
51.24000000000071         0.32791212227734334
51.26000000000073         0.35588943139370594
51.28000000000072         0.39170611078854134
51.30000000000074         0.4367418999154398
51.32000000000075         0.49090223900070096
51.34000000000075         0.5493108542823981
51.36000000000075         0.6013423736980161
51.380000000000734        0.6391889605178273
51.40000000000074         0.6593356098880717
51.42000000000074         0.6651914694716325
51.440000000000765        0.6591820436419984
51.46000000000077         0.638798050272486
51.48000000000077         0.6008319103870601
51.50000000000078         0.5485813600990583
51.52000000000079         0.48992132720348963
51.540000000000816        0.4354784352014772
51.56000000000083         0.3901353920799158
51.58000000000084         0.35399320567532067
51.60000000000083         0.32567648195865023
51.62000000000085         0.3037265426662315
51.64000000000084         0.28694427740518696
51.66000000000085         0.27442199993780697
51.68000000000085         0.2654958268183821
51.70000000000087         0.2597129196590296
51.72000000000089         0.2567872838377055
51.74000000000088         0.2565794314653251
51.760000000000886        0.2590852174474374
51.7800000000009          0.264435623844619
51.800000000000885        0.27290748693666045
51.82000000000092         0.2849458206907341
51.840000000000906        0.3011983565160999
51.860000000000916        0.3225600879151943
51.880000000000926        0.35021286557821507
51.90000000000094         0.38559578365835817
51.92000000000093         0.4299952595986431
51.94000000000094         0.483427511159989
51.960000000000946        0.5411536726708321
51.98000000000094         0.5925951446582971
52.00000000000094         0.62974146415591
52.020000000000934        0.6495777699934734
52.04000000000095         0.6553435670604936
52.06000000000094         0.6494405923854734
52.08000000000096         0.6293896335197555
52.10000000000098         0.5920061101848615
52.12000000000098         0.540529856375825
52.140000000000995        0.482706172212443
52.160000000001           0.4290256696697936
52.18000000000104         0.3843161545673427
52.20000000000103         0.34867453735152376
52.22000000000105         0.3207665621899133
52.24000000000106         0.2991339968965048
52.26000000000104         0.2825988556367615
52.28000000000106         0.2702663199676291
52.30000000000107         0.26148668633562533
52.32000000000107         0.2558115221707919
52.34000000000109         0.2529593474761788
52.36000000000108         0.25279324013738197
52.380000000001104        0.2553098601997397
52.40000000000111         0.2606392749407192
52.42000000000112         0.26905558127404355
52.44000000000114         0.2809989579933463
52.46000000000112         0.29710975945805934
52.48000000000113         0.31827344716099737
52.50000000000115         0.3456484259612258
52.52000000000115         0.3806506957434927
52.54000000000114         0.4246139220688294
52.560000000001146        0.4774714495848514
52.58000000000116         0.5345551047017515
52.600000000001124        0.5853966132070302
52.62000000000113         0.6220930318107244
52.64000000000112         0.6416760538732098
52.66000000000113         0.6473655929132732
52.68000000000113         0.6415416665337296
52.700000000001125        0.6217499283653072
52.72000000000114         0.5848303968615723
52.74000000000116         0.5339821695263866
52.760000000001185        0.47674022896978024
52.7800000000012          0.42371312388579624
52.80000000000121         0.3795672119922583
52.82000000000125         0.3443705379628026
52.84000000000124         0.31679119120245797
52.86000000000126         0.29541674446690436
52.880000000001246        0.2790833568994085
52.90000000000125         0.2669070072783015
52.92000000000126         0.25824591801135327
52.94000000000126         0.2526572524382277
52.96000000000128         0.24986322562800956
52.98000000000128         0.24972899852548977
53.00000000000127         0.2522518580142957
53.02000000000129         0.2575621299259851
53.0400000000013          0.2659301094519741
53.06000000000132         0.2777924258174556
53.08000000000131         0.2937828543654104
53.10000000000133         0.31477574778470396
53.120000000001326        0.3419232718799133
53.14000000000133         0.37662440136765346
53.16000000000133         0.42019846081564927
53.180000000001336        0.47257613504609136
53.20000000000134         0.5291267544461031
53.22000000000133         0.5794762671274766
53.24000000000134         0.6158076006913779
53.26000000000132         0.6351893179221892
53.28000000000132         0.6408224563093374
53.300000000001326        0.6350707124779275
53.32000000000134         0.6155670696146657
53.34000000000136         0.579109999633159
53.360000000001385        0.5286329328834178
53.38000000000139         0.471950050300398
53.400000000001405        0.4194321432608991
53.420000000001416        0.375709043164442
53.440000000001426        0.3408505655861223
53.460000000001436        0.313538113603131
53.48000000000145         0.29237305582599704
53.500000000001464        0.2762029379086915
53.52000000000147         0.2641524339490057
53.54000000000147         0.25558614580234557
53.56000000000147         0.25006517628858377
53.58000000000149         0.24731621941302231
53.60000000000149         0.24720508770810531
53.62000000000149         0.24972957453127906
53.6400000000015          0.25501827082638395
53.66000000000151         0.2633409972387976
53.680000000001506        0.275130377589581
53.700000000001516        0.2910150245768539
53.720000000001534        0.3118620004143769
53.74000000000154         0.33881368630988107
53.76000000000154         0.37325698029744075
53.78000000000154         0.4164992813987038
53.80000000000154         0.4684692500592749
53.82000000000152         0.5245680081359841
53.840000000001524        0.5743566835336682
53.860000000001506        0.6104546448419444
53.880000000001495        0.6297332709497584
53.90000000000151         0.6353176854909045
53.920000000001515        0.6296213916072321
53.94000000000152         0.6102960036119341
53.96000000000155         0.5741587580491949
53.98000000000156         0.5241138480915623
54.000000000001606        0.4679041194351031
54.020000000001595        0.41581931576454334
54.040000000001605        0.37245573246782193
54.060000000001615        0.3378842446014947
54.080000000001625        0.3107977016776417
54.10000000000166         0.28980933643406803
54.120000000001646        0.27377415854449555
54.14000000000165         0.2618295506977493
54.16000000000166         0.25334255905763864
54.18000000000168         0.2478785601561241
54.20000000000168         0.24516524031438253
54.22000000000169         0.24507082512911038
54.24000000000169         0.24759344056906046
54.260000000001696        0.2528609910174873
54.28000000000169         0.26114152150559883
54.30000000000171         0.27286463223258883
54.3200000000017          0.28865441345082227
54.340000000001744        0.30937157202143906
54.36000000000174         0.3361499666411551
54.380000000001736        0.37039370012779205
54.40000000000174         0.4133859817530105
54.42000000000174         0.4650244489354283
54.44000000000174         0.5206297666710686
54.4600000000017          0.5700657282915556
54.48000000000171         0.6059002056344163
54.50000000000172         0.625035363958728
54.52000000000173         0.6305795346089884
54.54000000000171         0.6249315053369394
54.560000000001736        0.6057587255144787
54.58000000000174         0.569895836571917
54.600000000001764        0.5202223758512792
54.620000000001816        0.4644202988708521
54.640000000001805        0.41270885597156337
54.66000000000182         0.3696826728767851
54.680000000001826        0.335336849727256
54.700000000001836        0.3084368432570888
54.72000000000186         0.2875980823607891
54.740000000001864        0.2716824201138459
54.76000000000186         0.259826938516337
54.780000000001856        0.25140592634385317
54.800000000001866        0.245988042196745
54.82000000000188         0.2433030664780165
54.84000000000189         0.2432203354832431
54.860000000001904        0.24573821578232286
54.8800000000019          0.25098397549951
54.9000000000019          0.2592240739088638
54.920000000001934        0.2708854366521581
54.940000000001916        0.28658565123340074
54.960000000001955        0.3071865405995933
54.98000000000194         0.33381614380224023
55.00000000000195         0.3678497219885805
55.020000000001936        0.41058194296553413
55.040000000001946        0.46190287140743985
55.060000000001935        0.5171585804294807
55.080000000001924        0.5662739055835289
55.10000000000192         0.6018704745591453
55.12000000000192         0.6208740514234401
55.140000000001905        0.6263797678185988
55.16000000000192         0.6207732466838053
55.18000000000193         0.6017352637556895
55.20000000000194         0.5659730934232818
55.22000000000198         0.5167663172068404
55.24000000000201         0.4614249097350338
55.260000000002016        0.4100186190637907
55.280000000002026        0.3671975245188322
55.30000000000206         0.33307011287367116
55.320000000002054        0.30634132379657075
55.34000000000207         0.2856356985987301
55.36000000000208         0.269822562755253
55.380000000002084        0.25804467356135574
55.400000000002066        0.24968045891208818
55.42000000000209         0.2443014710290743
55.4400000000021          0.24163934913373766
55.46000000000211         0.24156436755813093
55.48000000000213         0.24407445165613928
55.500000000002125        0.24929686410153123
55.52000000000214         0.25749635929315556
55.54000000000214         0.2690974610599694
55.56000000000215         0.28471704319214497
55.580000000002165        0.3052065568506081
55.60000000000216         0.33168948079688965
55.62000000000217         0.3655326579756763
55.64000000000217         0.4080225518393431
55.660000000002164        0.45904858244372004
55.68000000000215         0.5139813609177538
55.70000000000214         0.5628029803946082
55.72000000000212         0.5981829601477584
55.740000000002105        0.6170680396649358
55.7600000000021          0.6225396248211827
55.780000000002104        0.6169701754789069
55.80000000000213         0.5979883792209371
55.82000000000214         0.5625153983454007
55.84000000000217         0.5136084148493131
55.86000000000221         0.45859714185314465
55.88000000000223         0.40749390151149006
55.90000000000223         0.3649239606811912
55.920000000002254        0.3309962198363447
55.94000000000226         0.30442367659464636
55.960000000002275        0.2838392343392545
55.98000000000227         0.26811906657497486
56.000000000002295        0.2564111211449468
56.02000000000229         0.24809862110658631
56.04000000000231         0.24275322160321947
56.06000000000232         0.24010983641102088
56.080000000002315        0.24003954465987634
56.10000000000234         0.24254084370983256
56.12000000000233         0.2477396063267538
56.14000000000233         0.25589931354973494
56.16000000000235         0.26744213094137304
56.180000000002345        0.28298145766222005
56.200000000002376        0.3033639014834496
56.22000000000237         0.3297065047333418
56.24000000000237         0.3633682184527183
56.26000000000235         0.4056278716963343
56.28000000000235         0.4563744601493054
56.300000000002356        0.511007179857315
56.32000000000234         0.5596885997822572
56.34000000000232         0.5947906805811767
56.36000000000231         0.6134985698451008
56.38000000000231         0.6189374299375768
56.40000000000232         0.6134032941124987
56.420000000002354        0.5945361790096657
56.44000000000235         0.5592707616309456
56.460000000002374        0.5106447902878427
56.4800000000024          0.4559434000473329
56.50000000000243         0.40512476588796487
56.520000000002454        0.3627906336724006
56.54000000000246         0.32905023454939514
56.560000000002475        0.30262413275504824
56.5800000000025          0.2821555704795329
56.60000000000249         0.26652195799519884
56.62000000000249         0.25487842133394045
56.64000000000251         0.24661113852489525
56.66000000000251         0.2412968155014366
56.68000000000252         0.23867030074117107
56.700000000002525        0.23860347258336226
56.72000000000254         0.24109492129993312
56.74000000000253         0.2462698672373044
56.76000000000256         0.2543903590752726
56.78000000000255         0.26587628842605143
56.800000000002555        0.2813377433964975
56.82000000000258         0.3016167308633391
56.84000000000256         0.32781779506037284
56.86000000000257         0.3612843854289954
56.880000000002575        0.40328256230535003
56.90000000000257         0.4537365875561792
56.92000000000255         0.5081705959321974
56.94000000000255         0.5565862981061561
56.96000000000253         0.591493443289926
56.98000000000252         0.6100948700674648
57.000000000002515        0.6155027884086963
57.02000000000251         0.6100020829401905
57.04000000000255         0.5912442733184737
57.06000000000255         0.5561768602794182
57.080000000002585        0.507819040733222
57.100000000002616        0.4534134330811836
57.12000000000265         0.402798709145993
57.14000000000267         0.3607304954514869
57.16000000000268         0.32718982855799766
57.180000000002686        0.300910893197944
57.20000000000273         0.28054981321822503
57.2200000000027          0.2649991255518486
57.24000000000271         0.25341772060808776
57.26000000000271         0.24519514137046786
57.28000000000271         0.23991042247751906
57.30000000000274         0.23729988863483834
57.32000000000274         0.23723616587549387
57.34000000000276         0.23971792947810508
57.36000000000275         0.24486981052348056
57.38000000000277         0.25295249466796776
57.400000000002784        0.2643858983727225
57.42000000000277         0.27977264817565517
57.44000000000279         0.2999505110851938
57.4600000000028          0.32602075810525744
57.4800000000028          0.3593198126949638
57.5000000000028          0.40110597017403393
57.52000000000279         0.4513031277481062
57.54000000000277         0.5054568151190855
57.560000000002745        0.5536189910043512
57.58000000000272         0.5883408745740512
57.60000000000271         0.6068418684078153
57.62000000000272         0.612221043588078
57.6400000000027          0.6067525332217566
57.66000000000275         0.5881651567406494
57.680000000002764        0.5533606255528737
57.70000000000278         0.5051245099503551
57.72000000000283         0.4509041879492663
57.74000000000285         0.40064233928545445
57.76000000000287         0.3587895493592876
57.78000000000289         0.32542015007961683
57.80000000000289         0.2992751638383209
57.82000000000292         0.2790178297895244
57.84000000000291         0.26354652539524775
57.86000000000291         0.2520245714875758
57.88000000000292         0.24384472729750897
57.90000000000294         0.2385882518810357
57.92000000000294         0.23599287716092512
57.940000000002954        0.23593211101302042
57.96000000000297         0.2384047174196375
57.98000000000297         0.24353465833089344
58.00000000000297         0.25158138317421613
58.02000000000298         0.2629603588468324
58.04000000000298         0.2782749341059283
58.06000000000301         0.29835701214063187
58.080000000003004        0.3243022523015126
58.10000000000301         0.35744022162550526
58.120000000003           0.3990226191001236
58.14000000000299         0.4489730377174391
58.16000000000298         0.5028576649972692
58.180000000002956        0.5507767907297081
58.20000000000292         0.5853212365203826
58.22000000000292         0.6037253119191047
58.240000000002915        0.6090778057707855
58.26000000000293         0.6036405688338724
58.28000000000294         0.5851514745183533
58.30000000000295         0.5505274002475002
58.320000000003           0.502537241158538
58.340000000003016        0.44858870760273023
58.36000000000305         0.39857641084579265
58.380000000003086        0.3569304332532781
58.40000000000309         0.3237254116655912
58.42000000000311         0.2977089288649175
58.44000000000313         0.2775510562316162
58.46000000000312         0.2621557774182192
58.48000000000312         0.25068907233314963
58.50000000000313         0.2425505537792539
58.52000000000315         0.2373213089317475
58.540000000003154        0.23474044278347697
58.56000000000316         0.23468201471009179
58.580000000003174        0.23714488031411565
58.60000000000316         0.24225260522819358
58.62000000000318         0.2502634224134913
58.640000000003184        0.2615907929925832
58.660000000003194        0.2768350759241224
58.68000000000321         0.2968240543131902
58.7000000000032          0.3226479762016942
58.72000000000321         0.35562981618454786
58.74000000000321         0.3970149451925559
58.760000000003195        0.4468184762440935
58.780000000003184        0.5003458208230633
58.80000000000315         0.5478960589267357
58.82000000000311         0.5823421419239388
58.84000000000314         0.6007189451919505
58.860000000003126        0.6060447056077705
58.88000000000313         0.6006369718788822
58.90000000000316         0.582243740641483
58.92000000000317         0.5477940500100353
58.9400000000032          0.5000414674166906
58.96000000000325         0.44635530467216683
58.98000000000325         0.3965838678468217
59.00000000000328         0.35513751636803415
59.0200000000033          0.3220911764478116
59.04000000000332         0.2961978911094849
59.06000000000334         0.27613442717197767
59.08000000000333         0.26081271002680007
59.10000000000334         0.2494029937378766
59.120000000003344        0.2413036546844693
59.140000000003354        0.2361000490030905
59.16000000000335         0.23353257335857872
59.18000000000336         0.23347592499973802
59.20000000000338         0.23592899689331584
59.22000000000338         0.24101479763106687
59.240000000003384        0.24899036986837125
59.26000000000339         0.2602672509454598
59.2800000000034          0.27544294564489147
59.30000000000338         0.29534039273515356
59.320000000003425        0.3210534381365302
59.34000000000343         0.353904012502987
59.36000000000342         0.3951376996877683
59.380000000003406        0.4446425082022191
59.40000000000338         0.4979176805024318
59.42000000000337         0.545239830447285
59.44000000000334         0.5795183947511527
59.46000000000334         0.5978038892803786
59.48000000000333         0.6031032062611195
59.500000000003325        0.5977237781784733
59.52000000000335         0.5794233134239491
59.540000000003374        0.5451426970036298
59.560000000003406        0.4976206660432822
59.580000000003444        0.4442805079447035
59.600000000003476        0.3947186446111447
59.6200000000035          0.3534264436864687
59.64000000000353         0.3205140516811924
59.66000000000352         0.29473518641021396
59.680000000003524        0.27476514257780776
59.70000000000354         0.2595148078766685
59.72000000000355         0.24815841613749598
59.74000000000355         0.2400972285217987
59.76000000000356         0.2349185921206125
59.78000000000356         0.23236415716366768
59.800000000003564        0.23230923952949628
59.82000000000358         0.234752766924441
59.840000000003585        0.23981720254569996
59.8600000000036          0.24775683723958772
59.880000000003584        0.2589838873062635
59.9000000000036          0.27409254864381666
59.92000000000362         0.29390416744593295
59.940000000003614        0.3195023792085116
59.96000000000364         0.35220534158213773
59.98000000000365         0.39325271056989297
60.00000000000362         0.4425323977251162
60.0200000000036          0.4955626351382758
60.04000000000358         0.5426633530107559
60.06000000000355         0.5767792830490357
60.080000000003544        0.5949760061221434
60.100000000003526        0.6002491690842323
60.12000000000353         0.5948960874508687
60.140000000003546        0.5766191105174584
60.16000000000358         0.5424285060621797
60.1800000000036          0.49526169274823845
60.20000000000365         0.44217480345063465
60.22000000000368         0.39284185589355713
60.2400000000037          0.3517396225854007
60.260000000003714        0.31897819907691516
60.280000000003724        0.29331732772467395
60.30000000000373         0.27343860045454066
60.32000000000375         0.2582580570762464
60.34000000000376         0.2469538279136649
60.36000000000376         0.23892999611535093
60.38000000000376         0.23377585561644745
60.40000000000378         0.23123444565580306
60.42000000000378         0.23118102640768157
60.440000000003806        0.23361502792653227
60.460000000003795        0.23865832339451137
60.48000000000381         0.24656562061324264
60.50000000000382         0.2577448313469547
60.520000000003805        0.2727884868644078
60.54000000000382         0.2925142199458247
60.56000000000382         0.3180006904114755
60.58000000000384         0.35055998262747495
60.60000000000383         0.3914259727021659
60.620000000003834        0.4404865911230351
60.6400000000038          0.4932790312838109
60.660000000003784        0.5401658463471135
60.680000000003744        0.5741902975228595
60.70000000000374         0.5922386795251187
60.72000000000373         0.5974875778108854
60.74000000000374         0.5921618617597274
60.76000000000376         0.5739749104597519
60.78000000000378         0.5399449106822294
60.80000000000382         0.4929952596283768
60.820000000003866        0.4401474028863536
60.8400000000039          0.3910340197442975
60.860000000003915        0.35011400140332016
60.880000000003925        0.3174976158105232
60.900000000003956        0.2919502902683834
60.920000000003974        0.27215955539779335
60.94000000000397         0.2570485021373126
60.96000000000397         0.24579398125272886
60.980000000003976        0.23780559764081452
61.000000000003986        0.23267458774839891
61.02000000000399         0.23014496730601192
61.04000000000399         0.2300931712417648
61.06000000000403         0.2325181234661052
61.08000000000401         0.23754117589445695
61.10000000000402         0.2454159255766838
61.12000000000403         0.25654849554931514
61.140000000004044        0.2715288177046921
61.16000000000406         0.2911709354686407
61.18000000000405         0.316548724331333
61.20000000000407         0.3489683821375039
61.220000000004056        0.38959226550216486
61.24000000000403         0.4384159677029927
61.260000000004           0.49107334941083836
61.28000000000399         0.5378843365314566
61.300000000003955        0.5716201863613385
61.320000000003944        0.5895872025284828
61.340000000003926        0.5948130324359698
61.360000000003936        0.5895134651307716
61.380000000003946        0.5714112724728212
61.40000000000398         0.5375355541835962
61.42000000000402         0.4907956799675303
61.44000000000406         0.4381804132005208
61.460000000004094        0.3892814369268483
61.48000000000412         0.3485394837453567
61.50000000000414         0.3160586437997105
61.52000000000417         0.2906293231797815
61.540000000004156        0.27092617994225704
61.56000000000417         0.2558785802269773
61.58000000000418         0.24467335321646552
61.60000000000419         0.2367203244038546
61.62000000000419         0.23161255154695426
61.64000000000419         0.2290952089765394
61.6600000000042          0.2290453064353704
61.68000000000423         0.23146180584770265
61.700000000004216        0.23646556943804103
61.72000000000422         0.2443091375042175
61.74000000000423         0.25539692365605526
61.76000000000425         0.27031876411509204
61.78000000000425         0.28987891603410054
61.800000000004246        0.3151452116458883
61.820000000004256        0.3474106478666422
61.84000000000427         0.38789196601929843
61.86000000000425         0.43651164240362345
61.88000000000421         0.4889467666626286
61.900000000004205        0.5355567425908732
61.92000000000415         0.5691457474938868
61.940000000004154        0.587032978768307
61.960000000004136        0.5922356398571498
61.98000000000414         0.5869607423278839
62.000000000004164        0.568939902893798
62.02000000000419         0.5352127511799255
62.04000000000423         0.48868063735170686
62.06000000000425         0.43619480812296213
62.0800000000043          0.38752701149027924
62.100000000004336        0.3469964211555369
62.12000000000435         0.3146788489837392
62.14000000000436         0.28935682501172577
62.160000000004366        0.2697369107448153
62.18000000000437         0.25475306244262014
62.200000000004394        0.24359559643822695
62.22000000000439         0.23567686955226616
62.24000000000439         0.23059168836317737
62.260000000004396        0.2280863386916636
62.28000000000441         0.2280383973512451
62.30000000000443         0.23044687357273158
62.32000000000443         0.23543314421460085
62.34000000000444         0.2432473249896578