% Model:              Untitled.mph
% Version:            COMSOL 5.6.0.280
% Date:               Sep 24 2021, 10:25
% Dimension:          1
% Nodes:              1015
% Expressions:        1
% Description:        线图
% cln1x                   Height
49.2                      0.3378890420686004
49.21999999999992         0.33638841677913944
49.23999999999991         0.34023657651663186
49.259999999999906        0.34979288725927093
49.2799999999999          0.36575024053771465
49.2999999999999          0.38916247417198074
49.319999999999894        0.4214063662643717
49.339999999999876        0.4638364661288855
49.35999999999987         0.5164029222828096
49.37999999999987         0.5742791116007472
49.399999999999864        0.6264711398619666
49.41999999999985         0.6644033030766533
49.43999999999984         0.684697248401368
49.45999999999984         0.6905011636918039
49.47999999999982         0.684177933313129
49.499999999999815        0.6631774401824387
49.519999999999825        0.6241990444465029
49.53999999999983         0.5705032152356058
49.55999999999981         0.5106164203768679
49.57999999999979         0.45559615568018114
49.59999999999979         0.41035785456769874
49.61999999999979         0.37500882733072627
49.63999999999978         0.348214079683557
49.65999999999977         0.32858493584629617
49.67999999999976         0.31503014894505327
49.699999999999775        0.3067969268627123
49.71999999999975         0.3034437075716069
49.739999999999746        0.30481312410617956
49.759999999999735        0.31101870220192757
49.77999999999973         0.32245552472937383
49.79999999999973         0.3398257194732943
49.81999999999972         0.36416452858404236
49.839999999999705        0.39680222503405727
49.85999999999971         0.43902832068425446
49.87999999999969         0.4907534669704305
49.89999999999969         0.5472570861950317
49.91999999999969         0.5979162304458155
49.939999999999685        0.6346041328703836
49.959999999999695        0.6541943642874463
49.97999999999967         0.6598548292117442
49.99999999999967         0.6539435938645607
50.01999999999966         0.6340427711358474
50.03999999999966         0.5969315681402703
50.05999999999963         0.5457019536784687
50.07999999999962         0.4884650303248025
50.09999999999962         0.4358643919157154
50.11999999999961         0.3926513076305838
50.1399999999996          0.3589370556281765
50.1599999999996          0.33344223482471586
50.17999999999959         0.31483643413944384
50.19999999999959         0.3020758463849289
50.219999999999565        0.2944423611096718
50.23999999999957         0.29151730892382044
50.25999999999958         0.293154854731519
50.27999999999956         0.2994733721972904
50.299999999999564        0.3108580264733844
50.319999999999546        0.32799370282078016
50.339999999999534        0.35188613524050316
50.35999999999952         0.3838252928657881
50.37999999999953         0.42505799207957773
50.39999999999952         0.4754844018357453
50.41999999999951         0.5304919725801959
50.43999999999951         0.5797392752188884
50.4599999999995          0.6153663382299268
50.479999999999485        0.6343677731062588
50.499999999999496        0.6398634770055239
50.519999999999506        0.6341657872068542
50.53999999999948         0.6148585094431656
50.559999999999484        0.5789897651211402
50.579999999999465        0.5293430570978188
50.59999999999946         0.4738342887163883
50.61999999999943         0.4228163555158137
50.639999999999425        0.3809199208109876
50.65999999999942         0.348257661139855
50.67999999999942         0.32358842673952853
50.69999999999941         0.3056215350226697
50.71999999999941         0.293345070806811
50.7399999999994          0.2860638225920824
50.759999999999394        0.2833737945022533
50.77999999999938         0.28513645546652777
50.79999999999938         0.29146880121360663
50.819999999999375        0.30275232940355945
50.839999999999364        0.31965952107038453
50.85999999999936         0.34316869958877705
50.87999999999935         0.3745423348373633
50.89999999999935         0.4149963552474609
50.91999999999935         0.46442541964827544
50.939999999999344        0.5183023844346122
50.95999999999935         0.566498986417283
50.97999999999934         0.6013452455937699
50.99999999999934         0.6199185280123247
51.01999999999934         0.6252937558879383
51.039999999999324        0.61974472195418
51.05999999999931         0.6009082454471638
51.07999999999932         0.5657454814442257
51.09999999999929         0.5173837142948884
51.11999999999929         0.4631356216461169
51.13999999999926         0.41327359750136605
51.159999999999265        0.3723357631281327
51.17999999999925         0.34043510808451244
51.19999999999925         0.3163587318447525
51.21999999999923         0.29884525909021814
51.23999999999922         0.28690617364005033
51.259999999999216        0.2798629212739727
51.27999999999921         0.27732200156560105
51.299999999999216        0.2791498454189571
51.31999999999921         0.28546319297644623
51.339999999999186        0.29663799525094825
51.35999999999919         0.3133342133117795
51.37999999999918         0.3365165015358497
51.39999999999917         0.36742047351731094
51.41999999999917         0.40723969664058374
51.43999999999916         0.455865865419524
51.45999999999917         0.5088415093264615
51.47999999999916         0.5562078188141477
51.49999999999915         0.5904408077238384
51.51999999999914         0.608679692559365
51.53999999999913         0.6139599253577059
51.55999999999914         0.6085225890840111
51.57999999999914         0.5900459297447902
51.59999999999913         0.5555361656791935
51.619999999999116        0.5080561819258049
51.6399999999991          0.45488283627994247
51.65999999999908         0.4058331748769802
51.679999999999076        0.36564093441535545
51.699999999999065        0.3343304178608083
51.719999999999075        0.31071086267331205
51.73999999999905         0.293543854091774
51.75999999999907         0.2818591403083371
51.779999999999035        0.2749910908886723
51.799999999999045        0.27255425027405233
51.81999999999903         0.2744187071807027
51.83999999999902         0.280700714021418
51.85999999999902         0.2917715193593494
51.879999999999           0.30828181221218487
51.899999999999004        0.33118698115395284
51.919999999999           0.36168914790619766
51.93999999999898         0.40097780124846105
51.959999999998985        0.4489379853027058
51.97999999999898         0.5011702939541344
51.999999999998984        0.5478551125344547
52.019999999998994        0.5815863284524303
52.039999999998976        0.5995522454379566
52.05999999999897         0.604754306426395
52.07999999999897         0.5994056786569236
52.099999999998964        0.5812182057963139
52.119999999998946        0.5472362990468153
52.139999999998935        0.5004747169393402
52.159999999998924        0.44809807331493257
52.179999999998905        0.399844939842425
52.19999999999889         0.36019623243551235
52.21999999999889         0.3293641135323846
52.23999999999886         0.3061135305616176
52.25999999999887         0.28922477498277105
52.27999999999887         0.2777424409625525
52.299999999998846        0.2710113608574506
52.31999999999886         0.26865253730722155
52.33999999999883         0.27053891176030626
52.35999999999885         0.2767861760021919
52.37999999999882         0.28776154383128066
52.39999999999882         0.3041079015177511
52.41999999999882         0.3267687157694426
52.43999999999881         0.35695422369775426
52.45999999999879         0.39582890548178357
52.4799999999988          0.4431633327311294
52.4999999999988          0.4947682194515249
52.51999999999882         0.540879951711163
52.53999999999882         0.5741904281289835
52.55999999999881         0.5919283209251834
52.57999999999881         0.5970655963970846
52.59999999999879         0.5917916997982143
52.6199999999988          0.5738465808654553
52.63999999999878         0.5403064607016476
52.65999999999877         0.49414588402954396
52.67999999999875         0.4424352863777415
52.69999999999873         0.3947949734943637
52.71999999999872         0.35567697697245
52.739999999998695        0.32522084498090237
52.75999999999871         0.302278285330294
52.779999999998694        0.2856214843718074
52.79999999999869         0.2743073892836491
52.819999999998686        0.26768953274399154
52.83999999999866         0.26539427531960985
52.859999999998664        0.2672969021671273
52.879999999998674        0.27351259034718134
52.899999999998656        0.2844051275312407
52.91999999999866         0.30061082323169863
52.93999999999864         0.32306312639702667
52.95999999999864         0.35295910974240435
52.97999999999863         0.3914501074427789
52.999999999998614        0.4383922880476276
53.019999999998625        0.4893816649247256
53.03999999999863         0.5350098939065653
53.059999999998624        0.5679660180449909
53.079999999998634        0.5855124121512042
53.099999999998644        0.5905957690708821
53.119999999998626        0.5853854673442443
53.139999999998636        0.567645114661874
53.159999999998604        0.5344773941456735
53.1799999999986          0.4888228888154195
53.19999999999856         0.43767230552122793
53.219999999998564        0.39054673324505057
53.23999999999853         0.351854017920651
53.25999999999853         0.32173802519859535
53.27999999999852         0.29904702149657764
53.29999999999851         0.28258468307466744
53.3199999999985          0.27140986883407214
53.339999999998504        0.2648845397336235
53.359999999998486        0.26263949711580575
53.37999999999847         0.26455192123175886
53.399999999998485        0.2707364636897614
53.41999999999847         0.2815539144691085
53.43999999999846         0.2976349083145734
53.45999999999846         0.31990430881800164
53.47999999999847         0.3495479436033785
53.499999999998444        0.3877059566115261
53.51999999999846         0.4342343936488383
53.53999999999845         0.4847616556023585
53.55999999999847         0.5299784443998885
53.57999999999848         0.5626297280936177
53.599999999998474        0.5800114558406211
53.6199999999985          0.5850479748476825
53.639999999998466        0.5798908676050522
53.65999999999847         0.5623240651237615
53.679999999998444        0.5294740442324912
53.69999999999843         0.4842525926665897
53.71999999999839         0.43358301144793315
53.73999999999838         0.38690017523141595
53.759999999998364        0.348573075064052
53.779999999998374        0.318744849557445
53.79999999999834         0.2962746393067701
53.81999999999834         0.27997519215541905
53.83999999999833         0.26892092720751504
53.859999999998315        0.26247342131449175
53.87999999999832         0.2602694713907159
53.8999999999983          0.2621878537786644
53.919999999998296        0.2683427235737134
53.939999999998285        0.279092234684192
53.95999999999828         0.2950620664805979
53.97999999999828         0.317169612254376
53.99999999999827         0.34659095310480414
54.01999999999826         0.38445656662652133
54.03999999999828         0.4306225501037647
54.05999999999826         0.4807501873531245
54.079999999998286        0.5254741343792395
54.099999999998296        0.5579280770626163
54.1199999999983          0.5752280229372367
54.139999999998295        0.5802238244017998
54.15999999999829         0.5751126910712483
54.17999999999828         0.5576962660366803
54.19999999999826         0.5251220656203259
54.21999999999824         0.4802769366419662
54.23999999999821         0.4300258132408395
54.2599999999982          0.38372824163559094
54.279999999998175        0.3457191320443709
54.299999999998164        0.3161409449411455
54.31999999999816         0.29386229242571377
54.339999999998156        0.277705756733161
54.359999999998145        0.2667518076452099
54.379999999998134        0.2603724888121735
54.39999999999813         0.2582028127276664
54.41999999999813         0.26012459166945834
54.439999999998115        0.2662515069957048
54.459999999998104        0.276939361289581
54.4799999999981          0.29280944329177844
54.49999999999809         0.314772540426283
54.5199999999981          0.34399613322242617
54.53999999999809         0.38160221553866275
54.55999999999809         0.42744710881549997
54.57999999999811         0.47722167505247565
54.59999999999813         0.5216267368635585
54.61999999999812         0.5538474666955907
54.63999999999813         0.5710214902854305
54.65999999999812         0.5759835970716586
54.67999999999812         0.570914195453504
54.699999999998106        0.5536314665823583
54.71999999999809         0.5213007457594762
54.73999999999806         0.4767867337681028
54.75999999999803         0.4269022389814046
54.77999999999802         0.38094136129132655
54.799999999998           0.3432097735043482
54.81999999999799         0.3138494678445302
54.83999999999798         0.29173730840716505
54.859999999997974        0.2757044382875296
54.87999999999796         0.264838079029624
54.89999999999796         0.25851411472795066
54.91999999999795         0.2563728993180752
54.93999999999793         0.25829482596259856
54.95999999999793         0.26439393795160615
54.979999999997936        0.2750238956237165
54.99999999999791         0.29080203959581447
55.01999999999792         0.3126332469701618
55.03999999999791         0.34167733024200747
55.059999999997906        0.37904875707225
55.079999999997916        0.4246040834821154
55.09999999999791         0.47406043243826207
55.11999999999793         0.5181776285007544
55.13999999999795         0.5501874700941446
55.15999999999795         0.5672477745577654
55.17999999999794         0.5721776995739475
55.199999999997935        0.5671444699467332
55.21999999999793         0.5499802371390042
55.23999999999791         0.5178666996447159
55.25999999999789         0.47364876263308314
55.279999999997855        0.4240929892942857
55.29999999999784         0.37843413332760173
55.31999999999782         0.34095112507752773
55.33999999999781         0.3117854539432117
55.3599999999978          0.28982142810009903
55.37999999999778         0.27389790616501075
55.39999999999778         0.2631081804740909
55.41999999999778         0.25683235060475496
55.439999999997774        0.254713266654638
55.45999999999776         0.2566330982046687
55.479999999997766        0.26270285711167024
55.49999999999775         0.2732767107107206
55.51999999999775         0.2889675112498707
55.539999999997754        0.310674698849226
55.559999999997736        0.33955105377335854
55.57999999999774         0.3767041698854667
55.599999999997735        0.42199088953035707
55.619999999997745        0.47115249008661997
55.63999999999776         0.5150030351614678
55.659999999997765        0.5468174105061455
55.67999999999779         0.5637719584770237
55.69999999999778         0.568671358301133
55.71999999999777         0.5636713911110646
55.739999999997764        0.5466142821236049
55.75999999999774         0.5146998338103315
55.77999999999771         0.4707539892070552
55.799999999997695        0.4215011764049173
55.81999999999766         0.37612093718197664
55.83999999999766         0.3388671028748238
55.85999999999763         0.3098806168454818
55.87999999999763         0.2880526784193079
55.89999999999761         0.2722292874474383
55.9199999999976          0.2615093425311977
55.9399999999976          0.25527682830003856
55.9599999999976          0.25317690494959316
55.97999999999758         0.2550925975829922
55.999999999997584        0.26113604284510306
56.01999999999757         0.271654541608483
56.039999999997555        0.28726246614535544
56.059999999997565        0.30885251917902445
56.079999999997554        0.3375709033868739
56.099999999997564        0.37451879681930383
56.11999999999755         0.419553402065882
56.13999999999756         0.46843890594151466
56.159999999997574        0.5120403854420225
56.17999999999759         0.5436726016603304
56.19999999999759         0.5605290469330407
56.21999999999759         0.5654005376135068
56.2399999999976          0.5604313861459314
56.25999999999758         0.5435351328947312
56.27999999999757         0.5118733522687153
56.299999999997524        0.46805497806688656
56.319999999997506        0.4190837971866252
56.339999999997474        0.3739620641292145
56.359999999997456        0.33692053850405257
56.379999999997445        0.30809971334184666
56.39999999999743         0.28639718370122796
56.41999999999743         0.2706655657477229
56.43999999999743         0.26000894237005906
56.459999999997414        0.2538148749879081
56.47999999999742         0.251730634793086
56.4999999999974          0.25364001666678015
56.5199999999974          0.25965460822210795
56.5399999999974          0.27012196715456466
56.55999999999739         0.2856478842053025
56.57999999999738         0.3071232119551102
56.59999999999738         0.33568913974916353
56.61999999999737         0.3724396301642182
56.63999999999738         0.4172322915658294
56.65999999999741         0.465853271927089
56.67999999999741         0.5092164104752906
56.69999999999742         0.5406744696632683
56.719999999997434        0.557437284960519
56.73999999999743         0.5622824577751305
56.759999999997426        0.5573434777980416
56.779999999997415        0.5405447225741647
56.79999999999739         0.5090609303770331
56.81999999999736         0.4654906301518863
56.839999999997325        0.4167820252252202
56.85999999999731         0.37190558895080356
56.87999999999729         0.3350654013388066
56.89999999999727         0.30640161043879033
56.91999999999726         0.28481785146416844
56.939999999997255        0.2691729844792198
56.959999999997244        0.2585759850526228
56.97999999999724         0.2524177841324841
56.99999999999724         0.25034762936514127
57.01999999999722         0.2522500278993735
57.03999999999723         0.2582360443571489
57.0599999999972          0.2686514085382201
57.07999999999721         0.2840987082356393
57.09999999999719         0.3054594485110483
57.119999999997184        0.33388274643432303
57.13999999999719         0.3704427717799464
57.159999999997204        0.41500220150100414
57.17999999999721         0.4633683438611019
57.19999999999723         0.5065019496362196
57.21999999999725         0.5377922524596678
57.23999999999725         0.554464682596775
57.259999999997255        0.5592838836892158
57.27999999999725         0.5543725955834631
57.29999999999723         0.5376656600436753
57.319999999997215        0.5063514263646562
57.339999999997175        0.4630138628990188
57.359999999997136        0.41448294231114724
57.37999999999713         0.36986669690018237
57.39999999999709         0.33327912343530636
57.41999999999708         0.30476721257233597
57.43999999999708         0.28329825076493254
57.459999999997066        0.2677371824450351
57.47999999999707         0.25719774334467804
57.49999999999705         0.25107413828145564
57.519999999997054        0.2490175327802965
57.53999999999705         0.25091312652366704
57.55999999999704         0.2568715006739036
57.579999999997035        0.26723665658990275
57.59999999999704         0.2826080883323557
57.61999999999703         0.3038627847092903
57.63999999999702         0.33212183659221195
57.659999999997005        0.3685203165829009
57.679999999997015        0.4128548562407359
57.69999999999703         0.46097537992274956
57.71999999999706         0.5038879144379955
57.73999999999709         0.535016762405658
57.75999999999709         0.5516023406579275
57.779999999997095        0.5563967469662661
57.79999999999708         0.5515124070672456
57.81999999999707         0.5348942618682032
57.83999999999705         0.5037436207559906
57.85999999999702         0.46063038440563375
57.879999999996976        0.4123485769250246
57.89999999999696         0.36796060395015295
57.91999999999693         0.3315381726195376
57.93999999999692         0.3031945829971065
57.959999999996896        0.28183616396587624
57.97999999999689         0.2663557996143739
57.99999999999689         0.25587179401349724
58.01999999999689         0.24978149296161717
58.03999999999688         0.24773789791792947
58.05999999999687         0.24962686240943513
58.07999999999686         0.25555849257661123
58.099999999996854        0.26587513791136336
58.11999999999685         0.2811733164714908
58.13999999999683         0.30232563112534755
58.15999999999685         0.33044757823176585
58.17999999999683         0.36661120601878744
58.19999999999685         0.41070591050109406
58.21999999999684         0.4586696175265008
58.23999999999686         0.5013696388464574
58.259999999996886        0.5323437240743353
58.279999999996896        0.5488466031875243
58.29999999999691         0.5536179450370177
58.319999999996895        0.5487603313609978
58.339999999996884        0.5322285348142399
58.35999999999686         0.5012360252071462
58.37999999999684         0.45833903482269245
58.399999999996794        0.41029660175063126
58.41999999999678         0.36612765388240903
58.439999999996736        0.32988492926160295
58.45999999999675         0.3016768640097704
58.47999999999672         0.28042902438211176
58.49999999999673         0.26502596040689047
58.51999999999671         0.2545949456040197
58.53999999999671         0.24853632745558166
58.55999999999669         0.2465048577577637
58.57999999999669         0.24838700378280826
58.59999999999668         0.2542923988628677
58.61999999999667         0.2645618011455629
58.63999999999667         0.2797888901184811
58.659999999996664        0.30084205065445146
58.67999999999666         0.32883138910132426
58.69999999999665         0.3648237550751474
58.71999999999667         0.40870883149471393
58.73999999999667         0.45644845713881116
58.75999999999671         0.4989371540276382
58.77999999999671         0.5297607994102986
58.799999999996736        0.546182687859464
58.81999999999675         0.5509306226906485
58.839999999996735        0.5460973545611897
58.85999999999673         0.5296470807481607
58.8799999999967          0.4988058784481758
58.89999999999667         0.45611714399811704
58.91999999999662         0.40830688279987315
58.9399999999966          0.36435096539489586
58.95999999999657         0.32828300090717816
58.97999999999655         0.3002110749255852
58.99999999999655         0.27906710935618234
59.019999999996536        0.26373987904391005
59.039999999996525        0.2533579755602014
59.05999999999653         0.24732980265872737
59.07999999999651         0.24530974671299532
59.09999999999652         0.24718487004204637
59.119999999996494        0.25306433800397415
59.1399999999965          0.26328735109179185
59.15999999999648         0.2784448364917473
59.179999999996475        0.29940109136313914
59.19999999999647         0.3272609597781338
59.21999999999647         0.3630862187455677
59.23999999999648         0.40676687458962346
59.2599999999965          0.4542831111648758
59.27999999999653         0.4966947324160861
59.29999999999655         0.5272492842719847
59.31999999999656         0.5435929691477602
59.33999999999658         0.5483187100987851
59.35999999999657         0.5435097957760505
59.37999999999657         0.527139630933446
59.399999999996524        0.49644620186620364
59.419999999996485        0.4539602824930857
59.43999999999644         0.40637539244886345
59.45999999999641         0.3626259751279492
59.479999999996394        0.3267273879224654
59.49999999999637         0.29878742656941915
59.51999999999638         0.2777430875477685
59.53999999999637         0.2624883951945012
59.55999999999636         0.2521576476666679
59.579999999996346        0.2461572980294611
59.59999999999635         0.24414814491606898
59.61999999999635         0.24601622929588335
59.63999999999633         0.2518702457438829
59.65999999999634         0.2620478592372681
59.67999999999632         0.27713730441886025
59.699999999996315        0.2979989099944582
59.71999999999631         0.3257323877939788
59.73999999999631         0.3613945507380107
59.75999999999632         0.40487575546725696
59.77999999999634         0.4521742655744083
59.79999999999637         0.49439063076248313
59.8199999999964          0.524861942189423
59.839999999996415        0.5410730977677111
59.859999999996425        0.5457770447341325
59.879999999996414        0.5409925165936816
59.89999999999641         0.5247011450300838
59.91999999999637         0.4941522056793515
59.93999999999633         0.4518640599647084
59.95999999999629         0.4044982863432206
59.97999999999626         0.36094940102094675
59.999999999996234        0.32521530429671425
60.019999999996216        0.29740355284441417
60.0399999999962          0.27645604935664725
60.059999999996194        0.2612718939516563
60.0799999999962          0.2509893654034226
60.09999999999619         0.24501845305314396
60.11999999999618         0.24301915076581423
60.13999999999617         0.24488044199909725
60.159999999996174        0.2507097702623966
60.17999999999617         0.2608433109224884
60.19999999999616         0.2758666882970832
60.21999999999616         0.29663640571237887
60.239999999996144        0.32424724566658086
60.25999999999614         0.35975122769072715
60.27999999999616         0.4030389907351357
60.299999999996174        0.4501260255306851
60.31999999999623         0.49215205095289793
60.33999999999624         0.5224851086923081
60.35999999999627         0.5386220329402671
60.37999999999627         0.5433044655966898
60.399999999996254        0.5385424234479024
60.419999999996264        0.522326102646613
60.43999999999621         0.4919165017807666
60.45999999999617         0.44982020971862174
60.479999999996124        0.4026683752933689
60.4999999999961          0.3593158319593655
60.51999999999608         0.3237428453256221
60.53999999999606         0.29605663739705207
60.55999999999605         0.2752039423667668
60.57999999999605         0.2600888626823265
60.599999999996044        0.24985359577692423
60.61999999999601         0.2439108242345673
60.63999999999603         0.24192210630883698
60.65999999999602         0.24377618104749893
60.67999999999601         0.2495824473070243
60.69999999999602         0.25967323518852836
60.719999999996           0.2746324208286218
60.73999999999601         0.2953127750165628
60.75999999999598         0.3228042929500571
60.77999999999599         0.3581543322776364
60.799999999996           0.4012538436654384
60.81999999999603         0.44813531522171196
60.839999999996074        0.4899768567136836
60.85999999999609         0.5201763100999944
60.87999999999611         0.5362419963928154
60.89999999999611         0.5409044004376616
60.91999999999611         0.5361643143018712
60.93999999999609         0.5200227868928713
60.95999999999606         0.48974941617609985
60.97999999999602         0.44783994146149253
60.99999999999597         0.40089550349074093
61.019999999995946        0.3577329650895467
61.03999999999591         0.3223159072562227
61.05999999999589         0.29475129000931083
61.079999999995884        0.27399049366998246
61.09999999999587         0.2589424307882209
61.11999999999587         0.24875307118782478
61.139999999995865        0.24283769271970798
61.15999999999586         0.2408593661305324
61.17999999999585         0.2427073558099575
61.199999999995846        0.24848905740321073
61.21999999999584         0.25854012279214794
61.23999999999583         0.27343723565545486
61.259999999995834        0.29403111616548855
61.27999999999582         0.3214071262950186
61.29999999999583         0.35660812857505225
61.31999999999584         0.3995253797418309
61.33999999999586         0.4462078415871645
61.35999999999591         0.4878708197947132
61.379999999995924        0.5179409668281647
61.399999999995934        0.5339376588201356
61.419999999995945        0.5385804356195201
61.43999999999594         0.5338617408484904
61.45999999999592         0.5177341522648252
61.4799999999959          0.4875279831984892
61.49999999999586         0.4459197717623569
61.51999999999582         0.39917665309993333
61.539999999995786        0.356198907532871
61.55999999999577         0.32093353762638893
61.57999999999574         0.29348718662029943
61.59999999999573         0.2728157742159539
61.61999999999572         0.25783291122015767
61.63999999999571         0.24768825018380802
61.65999999999571         0.24179960599178776
61.6799999999957          0.2398315303806128
61.69999999999568         0.2416738075605425
61.719999999995686        0.2474334313897899
61.739999999995675        0.2574426601338902
61.75999999999567         0.2722819018080637
61.77999999999567         0.2927922690182114
61.79999999999566         0.32005667497038504
61.819999999995666        0.3551136587775691
61.839999999995676        0.3978547903553929
61.85999999999571         0.44434495547184594
61.87999999999576         0.48583541345579434
61.89999999999578         0.5157806536948539
61.9199999999958          0.5317107313510174
61.93999999999579         0.5363346022384222
61.959999999995794        0.5316366474631324
61.979999999995776        0.5155777144256111
61.999999999995744        0.4854986224909476
62.019999999995704        0.44405922163506006
62.039999999995665        0.39751596834566133
62.05999999999562         0.3547168418965527
62.07999999999561         0.31959810257760785
62.099999999995575        0.29226609259814174
62.119999999995585        0.2716811132677947
62.13999999999556         0.2567613070662391
62.15999999999555         0.2466598808218191
62.17999999999553         0.24079710170393495
62.19999999999554         0.23883896020579246
62.21999999999554         0.24067574633755348
62.23999999999553         0.24641406476341965
62.25999999999553         0.2563848651810557
62.27999999999552         0.27116516938180374
62.299999999995514        0.29160037886270607
62.31999999999551         0.318752490944188