% Model:              Untitled.mph
% Version:            COMSOL 5.6.0.280
% Date:               Sep 24 2021, 10:24
% Dimension:          1
% Nodes:              994
% Expressions:        1
% Description:        线图
% cln2x                   Height
21.91                     0.21981696082150132
21.920000000000027        0.2200916698414349
21.94000000000003         0.22243378020334115
21.96000000000003         0.2272751320735724
21.980000000000036        0.23485852423209247
22.00000000000004         0.24557312477170268
22.020000000000042        0.25998424792923885
22.040000000000045        0.2788714607680712
22.060000000000045        0.3032616242249221
22.080000000000048        0.33440091530551225
22.100000000000048        0.37346205631848334
22.12000000000006         0.42045544000584767
22.140000000000054        0.470943473069057
22.16000000000005         0.5157718596114471
22.180000000000042        0.5482447784130581
22.20000000000005         0.5655781280378561
22.22000000000005         0.5706399739150921
22.240000000000055        0.5656213187594923
22.260000000000062        0.548389340976793
22.280000000000076        0.5160209210277413
22.300000000000065        0.4710919069396518
22.320000000000068        0.42052730478646905
22.340000000000067        0.3736298514566284
22.360000000000074        0.33457573968545185
22.38000000000007         0.30344248937380636
22.40000000000007         0.2790569691011418
22.420000000000076        0.26017292425898825
22.440000000000087        0.2457654321298411
22.46000000000009         0.2350529519423413
22.480000000000093        0.22746903919464093
22.500000000000092        0.22262363601609658
22.520000000000092        0.22027302790139586
22.54000000000009         0.22030036608030354
22.560000000000088        0.22270622794234018
22.58000000000009         0.22760864799748515
22.6000000000001          0.2352526086404486
22.620000000000104        0.24602952230887887
22.640000000000107        0.26050714179014506
22.6600000000001          0.2794669977761994
22.680000000000106        0.3039475273008819
22.700000000000113        0.33520350868531124
22.720000000000105        0.3744167827861295
22.74000000000011         0.4214777861703297
22.76000000000011         0.4721027033183068
22.78000000000011         0.517051236550389
22.800000000000107        0.5496109781937611
22.820000000000107        0.5669912382699861
22.840000000000114        0.572067338540864
22.860000000000113        0.5670362282940824
22.880000000000116        0.5497605434145794
22.900000000000134        0.5173110279915719
22.920000000000126        0.47227055040403687
22.940000000000126        0.4216687033086443
22.96000000000013         0.3746338989284096
22.98000000000013         0.33544720121012683
23.00000000000013         0.30421961448375795
23.020000000000127        0.2797698806780607
23.040000000000138        0.26084117248112876
23.060000000000144        0.24640003951571435
23.080000000000144        0.23566301267589987
23.100000000000147        0.22806225759481064
23.12000000000015         0.22320677062740646
23.14000000000015         0.2208522601006927
23.160000000000156        0.22088162034462044
23.180000000000152        0.2232954696358593
23.200000000000156        0.22821218307043026
23.220000000000166        0.23587590149883372
23.24000000000016         0.24668150820450627
23.26000000000016         0.26119772372988753
23.28000000000016         0.280210287234669
23.30000000000017         0.30475552902525743
23.320000000000174        0.33609384219901545
23.340000000000163        0.3754102066427933
23.36000000000017         0.4225949840093737
23.380000000000173        0.47335382883372673
23.400000000000166        0.5184228818425036
23.42000000000017         0.5510711445776293
23.44000000000017         0.5685000175331416
23.460000000000164        0.5735912751950559
23.48000000000017         0.5685466190543235
23.500000000000178        0.5511633075143443
23.520000000000184        0.5185574700779519
23.54000000000019         0.473525310670302
23.56000000000019         0.42279727017261165
23.58000000000019         0.3756406909406106
23.60000000000019         0.3363530572818699
23.6200000000002          0.30504547626321366
23.640000000000196        0.28053353944415915
23.6600000000002          0.26155711441693036
23.680000000000213        0.24708005223516621
23.70000000000021         0.23631682843694546
23.72000000000021         0.22869811791048675
23.74000000000021         0.22383190283407373
23.760000000000208        0.22147343904359462
23.780000000000207        0.2215046951122844
23.80000000000021         0.22392679215100597
23.820000000000213        0.22885841664222145
23.84000000000023         0.23654590951162144
23.860000000000216        0.24738293675215
23.880000000000223        0.2619407951857706
23.900000000000222        0.28100745721996695
23.920000000000222        0.30562219680620567
23.940000000000232        0.3370489938362496
23.960000000000235        0.3764762386911551
23.98000000000023         0.42379418339675684
24.000000000000234        0.47469690101696427
24.020000000000227        0.5198949317729583
24.040000000000223        0.5526999879396286
24.060000000000223        0.5701189584501397
24.08000000000023         0.5752255833591438
24.100000000000225        0.570167226599178
24.120000000000232        0.5527345912369319
24.14000000000024         0.5200365917733659
24.160000000000245        0.47487774998443955
24.180000000000245        0.42400824507605755
24.200000000000255        0.37672098986636193
24.22000000000026         0.3373250015272406
24.240000000000254        0.3059315168595315
24.26000000000026         0.2813527486810179
24.280000000000264        0.2623250112724111
24.300000000000278        0.2478113783575619
24.320000000000267        0.23701930758451098
24.340000000000266        0.22938061965603362
24.36000000000027         0.22450228117081847
24.380000000000273        0.22213868696314634
24.400000000000272        0.22217210229702328
24.42000000000027         0.22460317294230966
24.440000000000264        0.22955097280991446
24.46000000000029         0.2372626049494213
24.48000000000028         0.2481329330665901
24.50000000000028         0.26273497998114853
24.520000000000284        0.2818590915761035
24.540000000000287        0.30654766952084805
24.56000000000029         0.3380685036247295
24.58000000000029         0.37754966460246925
24.60000000000029         0.4249858167794856
24.620000000000292        0.4761347878923718
24.640000000000292        0.5215979865479032
24.660000000000288        0.5543714462902507
24.680000000000287        0.5718458547475537
24.700000000000294        0.5769699060953876
24.720000000000294        0.5718970034420657
24.74000000000029         0.55441161519011
24.760000000000296        0.5216151305841877
24.780000000000307        0.47632099501328323
24.80000000000031         0.42530053950916225
24.82000000000031         0.3778738865346659
24.840000000000312        0.3383622942795391
24.860000000000316        0.30687108955009323
24.88000000000032         0.2822278177316491
24.90000000000032         0.2631467786141787
24.92000000000032         0.24858942510065918
24.94000000000033         0.2377670725871309
24.960000000000328        0.23010752133319165
24.98000000000033         0.2252165669726043
25.000000000000327        0.22284788557279786
25.020000000000344        0.2228834193206005
25.040000000000333        0.22532385662690063
25.060000000000336        0.23028868104267056
25.080000000000336        0.2380258042885115
25.100000000000342        0.24893136255041057
25.120000000000342        0.26358254696608496
25.14000000000034         0.2827660412379749
25.16000000000034         0.3075260979407202
25.18000000000035         0.33912711924444094
25.200000000000347        0.37875894647428754
25.220000000000343        0.4263454517043434
25.240000000000343        0.4776573934404147
25.260000000000346        0.5232671208576727
25.280000000000342        0.556147644778034
25.300000000000338        0.5736806164682237
25.320000000000338        0.5788229427780246
25.340000000000334        0.5737344516522894
25.36000000000034         0.5561929524457593
25.380000000000347        0.5232918129261253
25.40000000000035         0.47785963328208714
25.420000000000368        0.42658538374192106
25.440000000000364        0.37903415368017407
25.46000000000037         0.3394382544002472
25.480000000000373        0.30787534855151444
25.500000000000377        0.28315626647638353
25.520000000000376        0.26401695013308907
25.54000000000038         0.2494155569716014
25.56000000000039         0.23856092727162473
25.580000000000382        0.23087908280602779
25.60000000000038         0.2259745823117999
25.62000000000039         0.2236003313568952
25.640000000000384        0.2236379206502095
25.660000000000387        0.22608807561946762
25.680000000000398        0.23107166736946086
25.700000000000394        0.23883609155520638
25.7200000000004          0.24977925390771458
25.740000000000396        0.26447751633654903
25.7600000000004          0.2837250370326422
25.780000000000403        0.3085674222098153
25.800000000000406        0.34027328735280465
25.82000000000041         0.3800364831287563
25.840000000000412        0.42778096169293617
25.860000000000404        0.47926462843087153
25.880000000000397        0.525029790627562
25.900000000000404        0.5580244910073943
25.920000000000393        0.575620543793228
25.940000000000385        0.5807828647799783
25.9600000000004          0.5756788806741918
25.9800000000004          0.5581403185830136
26.00000000000041         0.5251994018854523
26.020000000000408        0.47948100174343256
26.040000000000422        0.42803693751605215
26.06000000000042         0.3803292711486909
26.08000000000043         0.3406036858773169
26.100000000000428        0.30893788774568
26.120000000000427        0.2841386890561936
26.140000000000434        0.2649377917088684
26.160000000000434        0.2502898636724909
26.180000000000454        0.23940111058867025
26.200000000000443        0.23169567429216725
26.220000000000443        0.226776303946014
26.240000000000443        0.2243965073797924
26.260000000000446        0.22443658764631233
26.280000000000445        0.2268973734126707
26.30000000000045         0.23189928499696583
26.320000000000448        0.23969201069741278
26.34000000000046         0.25067436243928165
26.360000000000458        0.2654247549436026
26.380000000000457        0.2847401705110525
26.400000000000457        0.30966993544310334
26.420000000000456        0.34148718964388164
26.440000000000456        0.38139008429821014
26.460000000000463        0.42930253891922165
26.48000000000046         0.48096813469595684
26.50000000000046         0.5267623024003252
26.520000000000454        0.5599470161041308
26.540000000000457        0.5776698471820025
26.560000000000457        0.5828521183923536
26.580000000000457        0.5777289431601695
26.60000000000045         0.5601255422804993
26.62000000000046         0.5270660044033341
26.640000000000462        0.48118562797743547
26.660000000000476        0.4295631120029952
26.680000000000483        0.38169179186468566
26.70000000000048         0.34183055291536774
26.720000000000482        0.31005700619011
26.740000000000485        0.2851738089116541
26.76000000000049         0.26590591840704675
26.78000000000049         0.25120931202730806
26.8000000000005          0.24028525599887282
26.8200000000005          0.2325554890155564
26.840000000000497        0.22762187062013178
26.860000000000497        0.2252357013882955
26.880000000000507        0.22527786812338768
26.900000000000503        0.227749236711007
26.920000000000503        0.2327706984889812
26.940000000000506        0.24059288275546797
26.96000000000051         0.25161608633353255
26.980000000000512        0.26642086689510064
27.000000000000522        0.2858071539616696
27.02000000000051         0.3108281528074903
27.040000000000518        0.3427876476041913
27.060000000000517        0.38287524627180236
27.080000000000517        0.4309869142948166
27.100000000000517        0.48274885112185417
27.12000000000051         0.5287198718375818
27.140000000000505        0.5620304715970891
27.160000000000508        0.57982256744132
27.180000000000504        0.5850268113813764
27.20000000000051         0.5798863246279247
27.220000000000514        0.5622188003394795
27.24000000000051         0.5290379488296897
27.260000000000524        0.4829892413472114
27.28000000000053         0.43117770174800324
27.30000000000054         0.3831316598498324
27.32000000000054         0.3431515544090582
27.340000000000543        0.31124327588639333
27.36000000000054         0.2862637520349
27.380000000000543        0.26692798626120295
27.40000000000055         0.25217945530434843
27.420000000000545        0.24121726714503725
27.44000000000055         0.23346101132604888
27.46000000000056         0.22851109056924365
27.480000000000555        0.2261179256515977
27.500000000000558        0.22616199140631973
27.520000000000557        0.22864417753742142
27.540000000000564        0.23368585312039147
27.560000000000556        0.24153861979877284
27.58000000000057         0.2526021711972432
27.600000000000577        0.26746336978227686
27.62000000000057         0.28692504576554984
27.64000000000057         0.3120480873100775
27.660000000000572        0.34412279362138176
27.680000000000568        0.3843625847953523
27.70000000000057         0.4326573177831339
27.72000000000057         0.48461787191650857
27.740000000000563        0.5307683084039976
27.76000000000056         0.5642110341214366
27.780000000000555        0.5820759647809339
27.80000000000057         0.5873029279097679
27.820000000000558        0.5821430541711377
27.840000000000565        0.5644063257662726
27.86000000000057         0.5309612705149762
27.880000000000575        0.48486524256436814
27.90000000000058         0.43295134726835743
27.920000000000606        0.384700121000139
27.940000000000598        0.3445047206098269
27.960000000000594        0.3124771360441767
27.980000000000597        0.28740470399275075
28.0000000000006          0.2679974966095504
28.020000000000607        0.2531949335622595
28.040000000000603        0.24219304811900239
28.060000000000606        0.2344092055677815
28.08000000000062         0.2294422862324702
28.10000000000061         0.22704178464596003
28.12000000000062         0.2270877657299758
28.14000000000062         0.22958063671907158
28.16000000000062         0.23464286070220666
28.180000000000618        0.24252686385216943
28.20000000000062         0.25363617777022435
28.22000000000062         0.26855634569597076
28.24000000000063         0.2880949476564829
28.260000000000627        0.3133171001719824
28.28000000000063         0.3455182440882832
28.30000000000063         0.38591669391960265
28.32000000000063         0.43440232156798403
28.340000000000625        0.4865700435132943
28.36000000000062         0.5329076674643622
28.380000000000614        0.5664882581689633
28.40000000000061         0.5844291821777426
28.42000000000062         0.5896798198379618
28.440000000000616        0.5844987258121064
28.46000000000063         0.5666262610900291
28.480000000000626        0.5331101779553293
28.500000000000632        0.4868296314653202
28.520000000000643        0.43471052804098437
28.540000000000646        0.38627011901322084
28.56000000000066         0.3459179189090572
28.58000000000066         0.3137659664930557
28.60000000000066         0.2885966783718065
28.62000000000066         0.2691149875263942
28.640000000000665        0.25425609029479995
28.660000000000668        0.2432128164165171
28.680000000000668        0.23540120146246382
28.700000000000678        0.23041611009894308
28.72000000000067         0.22800758833241414
28.74000000000067         0.228055204102379
28.760000000000673        0.230559884421726
28.78000000000068         0.23564397792703526
28.80000000000068         0.24356113647322578
28.820000000000675        0.2547165815484825
28.84000000000068         0.26969830533750266
28.860000000000685        0.289317265502171
28.88000000000069         0.3146430360839714
28.900000000000684        0.3469764890784007
28.920000000000684        0.3875411144754672
28.940000000000683        0.4362266967186458
28.960000000000683        0.4886163088472426
28.980000000000675        0.5352786312484032
29.00000000000067         0.5689295250851237
29.02000000000066         0.5868847499643292
29.040000000000667        0.5921581047844496
29.060000000000674        0.586955118906167
29.08000000000067         0.5690065388758405
29.100000000000676        0.5353497857494166
29.120000000000687        0.4888768868858482
29.140000000000693        0.43654398595031596
29.160000000000704        0.3879065443814144
29.180000000000714        0.3473910835502775
29.200000000000717        0.31510967657153977
29.220000000000713        0.2898404106215108
29.240000000000713        0.2702827370820467
29.26000000000072         0.2553649570653491
29.28000000000072         0.24427795506199082
29.30000000000072         0.2364347958561289
29.32000000000072         0.23143120017456076
29.340000000000735        0.22901463089196247
29.360000000000728        0.22906418151873056
29.380000000000724        0.23158082407839398
29.40000000000073         0.2366874713059223
29.42000000000074         0.24463888252034366
29.440000000000733        0.25584202259902167
29.46000000000074         0.27088740827293095
29.480000000000743        0.29058947694221116
29.50000000000075         0.31601619600506947
29.520000000000742        0.34846627082160664
29.54000000000074         0.3891631571885869
29.560000000000745        0.43803124485387135
29.580000000000744        0.49073507627673796
29.600000000000733        0.5376005707682154
29.620000000000726        0.5714004470576585
29.640000000000718        0.5894375803532471
29.660000000000725        0.5947363467880953
29.680000000000728        0.5895110164262675
29.700000000000728        0.5714833922030343
29.720000000000734        0.5376803303188551
29.740000000000745        0.491007339859609
29.760000000000748        0.43845206299713846
29.78000000000076         0.3895437956966816
29.80000000000078         0.3488980827663011
29.82000000000077         0.31650225763363565
29.840000000000767        0.2911343997546794
29.86000000000077         0.27149609421149457
29.880000000000777        0.2565172718274008
29.900000000000777        0.24538536763250202
29.92000000000078         0.2375109435719542
29.94000000000078         0.2324880025299469
29.960000000000793        0.23006294487286427
29.980000000000786        0.23011437048432615
30.00000000000079         0.23264328667386625
30.02000000000078         0.2377731793245193
30.040000000000788        0.24576153019920172
30.06000000000079         0.2570146130730974
30.080000000000794        0.27212612618196685
30.100000000000797        0.2919127294115345
30.1200000000008          0.3174496471364039
30.140000000000796        0.3500414818070835
30.160000000000796        0.3909163954497137
30.180000000000792        0.439998919264652
30.200000000000784        0.4929358393883454
30.220000000000784        0.5400117668852549
30.240000000000776        0.5739657270325161
30.260000000000776        0.5920873072034155
30.280000000000776        0.5974120469768475
30.300000000000782        0.5921632690190713
30.32000000000079         0.5741182963563093
30.340000000000792        0.5402359191714826
30.3600000000008          0.4932233391751675
30.38000000000081         0.44034146886438486
30.400000000000816        0.39131102248201244
30.42000000000082         0.3504895070819647
30.440000000000833        0.31795427686143346
30.46000000000082         0.29247785609631655
30.480000000000828        0.2727559988193415
30.500000000000835        0.2577138817086975
30.520000000000838        0.24653536622811492
30.540000000000838        0.23862842487465355
30.560000000000834        0.23358527871855234
30.58000000000085         0.23115122339963942
30.600000000000847        0.23120450721133073
30.620000000000836        0.23374621285283403
30.640000000000843        0.23890029652759226
30.660000000000842        0.246923889579372
30.68000000000085         0.25822758013896085
30.700000000000845        0.2734068025749607
30.72000000000085         0.2932819622062662
30.740000000000858        0.3189332239139843
30.760000000000858        0.3516712162788778
30.780000000000854        0.3927298665931125
30.800000000000853        0.4420338168871324
30.82000000000085         0.4952112018891975
30.840000000000835        0.5425035830576946
30.860000000000838        0.5765507619865613
30.88000000000083         0.5948223551552662
30.90000000000083         0.6001734398610061
30.920000000000837        0.5948997776807459
30.94000000000084         0.5767675030193254
30.960000000000846        0.5427271240335061
30.98000000000086         0.4954990813718607
31.000000000000867        0.4423799933656953
31.02000000000087         0.393132267510231
31.040000000000877        0.3521309634539051
31.06000000000089         0.3194531680251829
31.080000000000894        0.2938657426970005
31.10000000000088         0.27405849725340425
31.12000000000089         0.2589517175213393
31.14000000000089         0.24772401437059444
31.160000000000895        0.2397844731112876
31.180000000000895        0.23472120890634754
31.20000000000089         0.23227841588778167
31.2200000000009          0.232333711287144
31.240000000000904        0.23488823507210937
31.260000000000897        0.2400667158139841
31.280000000000904        0.24812749809488968
31.300000000000903        0.25948309470356173
31.320000000000917        0.27473172511166977
31.34000000000091         0.294697629611524
31.360000000000923        0.32046602289183307
31.38000000000091         0.35335367410120544
31.4000000000009          0.39460039303876326
31.420000000000897        0.4442222434955303
31.440000000000904        0.4975503699222581
31.46000000000089         0.5449345090858829
31.48000000000091         0.5792846422003485
31.500000000000902        0.5976479557097432
31.520000000000902        0.6030280103160897
31.5400000000009          0.5977306516917255
31.5600000000009          0.5795125883360286
31.580000000000894        0.5453118789623357
31.600000000000904        0.4978628874986969
31.620000000000925        0.4444974583994127
31.64000000000094         0.39502290370733467
31.660000000000938        0.3538338900441498
31.680000000000938        0.3210137269516862
31.700000000000944        0.2953035788325461
31.72000000000094         0.27540594421551684
31.74000000000094         0.26023219101297757
31.760000000000932        0.24895721120797504
31.780000000000953        0.240983130751585
31.800000000000953        0.23589837402244565
31.820000000000952        0.23344595592886702
31.840000000000952        0.23350294073136668
31.86000000000096         0.23607049952758735
31.880000000000955        0.24127397943479584
31.900000000000954        0.24937298214871367
31.920000000000968        0.2607820188739861
31.940000000000968        0.2761022058531209
31.960000000000974        0.2961609292016672
31.98000000000098         0.322057523547576
32.00000000000096         0.3551205247143378
32.02000000000096         0.3966022297590926
32.04000000000096         0.4463926351356389
32.060000000000954        0.4999757991641913
32.08000000000094         0.5475895001592476
32.10000000000094         0.5821081801334587
32.12000000000095         0.6005635565341263
32.14000000000093         0.605971326056095
32.16000000000093         0.600647430087318
32.18000000000094         0.5823385476572037
32.20000000000094         0.5479707449658564
32.22000000000096         0.5002931141324559
32.24000000000096         0.44676663260552457
32.26000000000098         0.39703542758180455
32.28000000000097         0.3556143771216727
32.30000000000098         0.322615450292546
32.32000000000098         0.29678707566992535
32.340000000000984        0.2767986188977057
32.36000000000099         0.261556175445093
32.38000000000098         0.25023062693540793
32.40000000000098         0.24222123683440056
32.42000000000099         0.2371145004970032
32.440000000000985        0.2346522382687549
32.460000000000996        0.2347109539049364
32.480000000000985        0.23729185225356902
32.500000000001           0.24251991082941607
32.52000000000099         0.2506574350599326
32.540000000001           0.2621205241130136
32.560000000001           0.2775136889556171
32.580000000001014        0.2976706581329263
32.600000000001           0.3236910569405347
32.620000000001           0.3569124219215772
32.640000000000995        0.3985933522306828
32.660000000001           0.4486240721429542
32.68000000000099         0.5024689173651147
32.700000000000976        0.5503201648553038
32.720000000000965        0.5850143869325699
32.740000000000975        0.6035669848637676
32.76000000000096         0.6090049790895177
32.78000000000096         0.6036538912157428
32.80000000000098         0.5851869175293882
32.820000000000974        0.5505739007678849
32.84000000000098         0.502795534981101
32.86000000000099         0.4490144809303279
32.880000000001           0.39904430600128843
32.900000000001           0.3574256554632557
32.920000000001004        0.32427038974088723
32.94000000000101         0.29832057324706507
32.96000000000101         0.2782389377656498
32.98000000000103         0.26292614625893784
33.00000000000101         0.25154895032787955
33.02000000000101         0.24350361790648617
33.04000000000102         0.23837463702089
33.060000000001025        0.23590278621935618
33.080000000001036        0.23596331274424973
33.100000000001025        0.2385579532552027
33.12000000000102         0.24381329435990357
33.140000000001024        0.2519915359335863
33.16000000000103         0.2635114434575666
33.180000000001016        0.27898061142329833
33.200000000001026        0.2992370225936241
33.220000000001036        0.32538592214612605
33.240000000001025        0.3587717101938936
33.26000000000103         0.40065957453534273
33.28000000000102         0.45093990574303283
33.30000000000102         0.5050561029528381
33.32000000000101         0.5531527385086934
33.340000000001005        0.5880938236924089
33.360000000001           0.6066807111711827
33.380000000001           0.6121483735031203
33.40000000000099         0.606769386067523
33.420000000001004        0.5882055692799769
33.44000000000102         0.5534144665777897
33.460000000001024        0.5053934798544982
33.48000000000103         0.45134394269791417
33.50000000000103         0.40112721163185283
33.52000000000103         0.3593048843898936
33.540000000001044        0.3259886348009074
33.56000000000105         0.29991391626313646
33.58000000000106         0.2797365875141788
33.600000000001046        0.26435394071007295
33.62000000000105         0.2529233624856764
33.64000000000105         0.24484094114959098
33.66000000000105         0.2396891323291813
33.680000000001066        0.23720724734720394
33.70000000000106         0.23727060720205737
33.72000000000107         0.23988046919621533
33.74000000000107         0.24516413124499833
33.76000000000106         0.2533852080324269
33.78000000000107         0.2649647008649791
33.800000000001056        0.2805134389773856
33.82000000000106         0.3008738674445768
33.84000000000107         0.32715712838391686
33.86000000000107         0.3607148296835198
33.88000000000106         0.4027512551214853
33.90000000000107         0.45326750480454736
33.92000000000105         0.5077652293761731
33.94000000000104         0.5562528655548651
33.960000000001024        0.5912420617606903
33.98000000000103         0.6099317551958783
34.00000000000102         0.61543061197098
34.02000000000103         0.6100220689898616
34.04000000000104         0.5913567077841672
34.06000000000104         0.556379494395962
34.080000000001064        0.508105345591867
34.10000000000106         0.45377614463526417
34.12000000000108         0.4033028528112212
34.14000000000107         0.3612686969081318
34.160000000001084        0.3277787017210894
34.18000000000107         0.3015814649787336
34.20000000000108         0.28130636837530776
34.2200000000011          0.2658464195529919
34.24000000000109         0.2543611457344456
34.260000000001085        0.24624097383944987
34.280000000001095        0.24106614625889985
34.300000000001084        0.23857461491341506
34.32000000000109         0.2386411136310514
34.340000000001105        0.24126698643664432
34.360000000001094        0.2465802802715105
34.38000000000109         0.2548460872570462
34.40000000000111         0.2664877390665335
34.4200000000011          0.28212191451839613
34.4400000000011          0.3025891280961109
34.4600000000011          0.32900507949389973
34.48000000000109         0.3627209442219169
34.50000000000111         0.40500957378552577
34.52000000000109         0.45579749202819697
34.54000000000109         0.5105915368257384
34.56000000000108         0.5593481583711092
34.580000000001085        0.594535198206846
34.60000000000108         0.6133339632957923
34.62000000000107         0.6188663962745268
34.640000000001066        0.6134272271053538
34.66000000000108         0.5946555747489705
34.68000000000107         0.5594835833707207
34.70000000000108         0.5109497521247567
34.72000000000111         0.45622960025655535
34.740000000001096        0.40551371075828313
34.76000000000111         0.36329945762572863
34.78000000000112         0.32966215934570064
34.80000000000111         0.30332960772775625
34.82000000000111         0.28295092557514384
34.840000000001126        0.26741301462468814
34.860000000001136        0.2558707953602454
34.88000000000112         0.24771137759766704
34.90000000000112         0.24251272518082134
34.920000000001124        0.24001135487147005
34.94000000000113         0.24008134604742823
34.96000000000113         0.24272413491138994
34.98000000000112         0.24806959043761082
35.00000000000112         0.2563829177562337