% Model:              Untitled.mph
% Version:            COMSOL 5.6.0.280
% Date:               Sep 24 2021, 10:26
% Dimension:          1
% Nodes:              994
% Expressions:        1
% Description:        线图
% cln2x                   Height
21.910000000000007        0.21637690513164023
21.920000000000027        0.21660563299188917
21.940000000000026        0.2189302115783023
21.960000000000033        0.22385037961981344
21.980000000000036        0.23160464808726755
22.000000000000036        0.24257675886852817
22.020000000000035        0.2573251902160717
22.040000000000042        0.2766208250108944
22.060000000000045        0.3014792492620444
22.080000000000037        0.33313147558545186
22.100000000000048        0.3727287862837575
22.120000000000054        0.42025059994841024
22.14000000000005         0.4712061327649728
22.160000000000046        0.5163916826012491
22.180000000000042        0.5491008534508576
22.200000000000042        0.5665570183033903
22.220000000000052        0.5716529902718447
22.240000000000048        0.5665933183432108
22.260000000000055        0.5492290369338894
22.28000000000007         0.5166090161985137
22.30000000000006         0.47129631771504504
22.32000000000006         0.4202282827261606
22.340000000000064        0.3727614242829937
22.360000000000067        0.33312232895019084
22.38000000000007         0.3014217752724596
22.40000000000007         0.2765084118137923
22.42000000000007         0.257150790853147
22.44000000000008         0.24233484622724857
22.460000000000075        0.23128676140165216
22.48000000000008         0.22344571638097466
22.50000000000008         0.21842560449328563
22.52000000000009         0.21598522055327385
22.540000000000084        0.21600890206648846
22.560000000000088        0.21849713816008892
22.58000000000009         0.22356659654199929
22.600000000000097        0.2314595569754931
22.620000000000093        0.24256326331763672
22.640000000000096        0.25743958735847955
22.6600000000001          0.27686205485776383
22.6800000000001          0.3018583014279509
22.700000000000095        0.3336678937452714
22.720000000000102        0.3734506354727044
22.7400000000001          0.4210630854279176
22.76000000000011         0.4721711113983256
22.780000000000108        0.5174853364854832
22.800000000000107        0.5502857959095809
22.820000000000103        0.567791643844088
22.84000000000011         0.5729040697400564
22.86000000000011         0.5678346413968149
22.88000000000011         0.55043164656495
22.900000000000112        0.5177398744601834
22.920000000000122        0.47232916410106285
22.94000000000012         0.4212415134406248
22.96000000000012         0.3736528239442421
22.98000000000013         0.3338935542504102
23.00000000000013         0.30210865267947884
23.02000000000013         0.27713908392114095
23.040000000000134        0.25774331012927226
23.06000000000014         0.24289882882830435
23.080000000000137        0.2318301658723953
23.10000000000014         0.22397531057648504
23.12000000000014         0.21894735199955742
23.140000000000146        0.2165046029126121
23.160000000000146        0.2165312004269394
23.180000000000152        0.21902769706083858
23.200000000000152        0.22411109121006437
23.220000000000162        0.23202272368173496
23.24000000000015         0.2431533262832648
23.260000000000154        0.2580655987017588
23.28000000000016         0.2775371146660531
23.30000000000016         0.30259308651362615
23.32000000000017         0.33447846882741844
23.340000000000167        0.374355936974524
23.360000000000174        0.4220819499174903
23.38000000000018         0.47331261790492035
23.400000000000176        0.5187369125247226
23.42000000000017         0.5516181130153774
23.440000000000165        0.5691682843476638
23.460000000000164        0.5742948167644353
23.480000000000175        0.5692145154786783
23.50000000000017         0.5517076917818943
23.520000000000174        0.5188669710096915
23.540000000000184        0.4734770683947958
23.560000000000183        0.4222744525657007
23.580000000000183        0.3745734292911504
23.600000000000186        0.33472095552504433
23.620000000000186        0.3028621895020903
23.640000000000192        0.2778351776954589
23.66000000000019         0.2583953146499292
23.680000000000195        0.24351760088203087
23.700000000000202        0.23242466439052192
23.7200000000002          0.22455311822464444
23.7400000000002          0.21951511406216473
23.760000000000204        0.21706856308481837
23.78000000000021         0.21709666252641752
23.80000000000021         0.2196004711288849
23.820000000000213        0.22469724995696666
23.84000000000022         0.23263051246298824
23.860000000000216        0.2437895583914142
23.88000000000021         0.258739523482864
23.90000000000022         0.2782599707960686
23.920000000000222        0.3033787306541981
23.94000000000022         0.3353439404153999
23.960000000000218        0.37532130624194343
23.980000000000224        0.42316730241290834
24.000000000000234        0.4745282249598856
24.020000000000227        0.5200705985551339
24.040000000000223        0.5531021732148085
24.060000000000226        0.5706386352357463
24.080000000000222        0.5757802797962117
24.10000000000023         0.570687421654482
24.120000000000232        0.553136725531341
24.140000000000235        0.5202122995026861
24.160000000000245        0.47470716578366157
24.18000000000024         0.4233757131822597
24.200000000000248        0.37555556493591197
24.220000000000244        0.33560423387614524
24.24000000000025         0.3036670262380283
24.260000000000257        0.27857892905388165
24.280000000000257        0.2590921140137616
24.30000000000026         0.24418113992357646
24.320000000000267        0.23306167973758532
24.34000000000026         0.2251717103178161
24.360000000000262        0.22012247556847686
24.380000000000262        0.21767108122647486
24.40000000000027         0.21770107443158437
24.42000000000026         0.22021301176468028
24.440000000000275        0.2253245043948151
24.460000000000285        0.23327975640286006
24.48000000000028         0.24446915511403838
24.500000000000284        0.2594594069324805
24.520000000000277        0.2790322400267033
24.54000000000028         0.3042183456664294
24.560000000000283        0.3362693556866095
24.580000000000283        0.3762890267212406
24.600000000000286        0.42424083618737013
24.620000000000285        0.47583592092280447
24.640000000000292        0.5216316920057787
24.660000000000284        0.5546194349256535
24.680000000000284        0.5722050142007815
24.700000000000287        0.5773613538972975
24.72000000000029         0.5722539946469993
24.740000000000286        0.5546538162522394
24.760000000000296        0.5216387856948148
24.780000000000303        0.47601020224524504
24.800000000000303        0.4245423707781971
24.820000000000302        0.3765967911090661
24.84000000000031         0.3365413999395505
24.860000000000312        0.3045152264790042
24.88000000000031         0.2793697429082185
24.900000000000308        0.2598349149461929
24.920000000000318        0.24488403923493535
24.940000000000328        0.23373708783699648
24.960000000000317        0.22582814929530046
24.980000000000324        0.2207674208254618
25.00000000000033         0.21831136527232006
25.020000000000326        0.21834324098991473
25.04000000000033         0.22086364303508457
25.06000000000033         0.22599054974468277
25.080000000000336        0.23396889061741052
25.100000000000342        0.24519019524166874
25.120000000000342        0.2602252003958606
25.140000000000338        0.27985153799438395
25.16000000000034         0.305101403151053
25.18000000000034         0.33722254215838804
25.20000000000034         0.3773815026009116
25.22000000000034         0.4254691134524845
25.24000000000034         0.47721153135114586
25.26000000000035         0.523140093761759
25.28000000000034         0.5562250838149052
25.300000000000338        0.5738640965290797
25.320000000000338        0.5790372736319712
25.340000000000337        0.5739159240676919
25.36000000000034         0.5562649575624775
25.380000000000347        0.52315517884488
25.400000000000354        0.4774025465692272
25.42000000000036         0.4256944523817714
25.440000000000357        0.37763834608575897
25.46000000000036         0.3375108493852137
25.480000000000363        0.3054228162888197
25.500000000000366        0.28020857092294155
25.520000000000373        0.2606208376680682
25.540000000000372        0.24562994552570425
25.560000000000386        0.23445364001994687
25.580000000000382        0.22652440940259197
25.600000000000378        0.22145133554132043
25.620000000000378        0.21899018602252263
25.64000000000038         0.21902390190624405
25.660000000000384        0.22155311110547904
25.680000000000383        0.22669717287239138
25.700000000000387        0.23470036271391817
25.720000000000397        0.24595586342531964
25.740000000000393        0.2610333314688059
25.760000000000396        0.2807177631668861
25.780000000000403        0.3060423253233918
25.800000000000402        0.3382585993138543
25.8200000000004          0.37853678580729994
25.8400000000004          0.42676774645460197
25.8600000000004          0.4786657303555943
25.880000000000393        0.5247345647983362
25.900000000000396        0.5579223379012713
25.920000000000393        0.5756179585735255
25.94000000000039         0.5808092874219577
25.96000000000039         0.5756747951744144
25.9800000000004          0.5580346305152807
26.0000000000004          0.524898005003716
26.02000000000041         0.4788725289908918
26.040000000000425        0.42701023807959543
26.060000000000418        0.37881151025860327
26.080000000000418        0.3385656954906931
26.100000000000417        0.30638379975055885
26.120000000000424        0.2810964692597089
26.14000000000043         0.2614525416237506
26.160000000000426        0.2464191543415573
26.18000000000043         0.23521164993115273
26.20000000000044         0.22726080596199924
26.22000000000043         0.22217398619125522
26.24000000000043         0.2197076829103012
26.260000000000435        0.21974353984400027
26.280000000000435        0.2222822756282713
26.30000000000044         0.22744270819194967
26.320000000000448        0.2354713571093912
26.340000000000444        0.2467621354132012
26.360000000000458        0.2618865306958665
26.380000000000454        0.2816320607512964
26.400000000000453        0.3070352145439833
26.42000000000046         0.339351613464397
26.440000000000456        0.3797553036109422
26.460000000000452        0.428137177626672
26.48000000000046         0.4801989394223388
26.500000000000455        0.5262794137043274
26.52000000000046         0.5596475035418012
26.540000000000457        0.5774654494041407
26.560000000000453        0.5826759445965145
26.580000000000453        0.5775254828513071
26.60000000000045         0.5598284683811052
26.62000000000046         0.526586114215388
26.640000000000462        0.48041514205772046
26.66000000000046         0.4283911445954581
26.680000000000476        0.38004353165234733
26.700000000000475        0.33967421860590524
26.720000000000475        0.3073942399262512
26.740000000000478        0.28203044681200456
26.760000000000485        0.2623252579073271
26.780000000000484        0.24724751761306657
26.800000000000487        0.2360078665717244
26.820000000000498        0.2280348416627451
26.840000000000494        0.22293505424397725
26.860000000000497        0.22046280344624397
26.880000000000496        0.2205003816400271
26.900000000000496        0.22304853119868998
26.920000000000503        0.22822648376595447
26.9400000000005          0.2362815942156821
26.96000000000051         0.2476090985326033
26.980000000000512        0.26278239712556095
27.000000000000508        0.2825916414489482
27.02000000000051         0.3080767890051501
27.04000000000051         0.34052428588112943
27.06000000000051         0.3810983774369292
27.080000000000506        0.42966155372084186
27.100000000000513        0.48179883448560007
27.12000000000051         0.5280397256174516
27.1400000000005          0.561521492131464
27.16000000000051         0.579402103754804
27.180000000000504        0.5846322400729985
27.200000000000497        0.5794653132850607
27.22000000000051         0.5617090491102744
27.24000000000051         0.5283561733729132
27.260000000000524        0.4820329197680135
27.280000000000527        0.42983939826112927
27.300000000000544        0.3813356209495213
27.320000000000537        0.34086347469705286
27.34000000000054         0.3084603500739918
27.36000000000054         0.28300924976934055
27.380000000000543        0.2632431676756828
27.40000000000055         0.24811874795031064
27.420000000000545        0.2368447790329141
27.44000000000055         0.22884789219681712
27.46000000000055         0.22373341063460914
27.48000000000055         0.22125485639399015
27.50000000000055         0.22129415617551945
27.520000000000554        0.22385207649536895
27.540000000000553        0.22904828057894358
27.560000000000564        0.23713099925153516
27.580000000000563        0.24849465209616917
27.60000000000057         0.2637188613714731
27.620000000000573        0.28359637244069685
27.64000000000057         0.3091745150898768
27.660000000000572        0.34172520142115215
27.680000000000565        0.3824367654651563
27.700000000000568        0.4311652566701922
27.72000000000056         0.48348142787722903
27.74000000000056         0.5298830026094259
27.76000000000056         0.5634825992968399
27.780000000000566        0.5814275274932359
27.800000000000566        0.5866771615706523
27.820000000000558        0.5814919668877301
27.84000000000056         0.5636725654762892
27.860000000000564        0.5300660803975522
27.880000000000575        0.48371437867752426
27.900000000000574        0.4314403796385921
27.92000000000058         0.38275038467820943
27.94000000000059         0.34207734010501606
27.960000000000594        0.30956723031211775
27.980000000000594        0.2840327300769199
28.000000000000597        0.26420245402123016
28.0200000000006          0.2490294374544684
28.0400000000006          0.23771973082771722
28.060000000000603        0.22969798387727208
28.080000000000613        0.2245681648832821
28.10000000000061         0.222082975660536
28.12000000000061         0.22212397976578502
28.140000000000615        0.22469143599877844
28.160000000000615        0.22990607046046047
28.18000000000061         0.2380168277634076
28.200000000000614        0.24942186506864872
28.220000000000613        0.264699128236907
28.240000000000627        0.28464583721344794
28.260000000000623        0.3103131271354104
28.280000000000626        0.34297754507947614
28.30000000000063         0.3838318390917468
28.320000000000626        0.43273203608446054
28.34000000000062         0.48523433443542346
28.36000000000062         0.5318036699960753
28.380000000000614        0.565526640880616
28.40000000000061         0.5835394123035244
28.420000000000616        0.5888102850391804
28.440000000000612        0.5836064527496625
28.46000000000062         0.5656588719669444
28.48000000000061         0.5319965084710322
28.500000000000625        0.4854795549678802
28.520000000000632        0.4330209903490215
28.540000000000642        0.38416048543187414
28.56000000000065         0.34334604060270324
28.580000000000645        0.310723752953195
28.60000000000065         0.28510185887241457
28.620000000000648        0.2652043365143691
28.640000000000658        0.2499804147415214
28.660000000000654        0.23863325865370325
28.68000000000065         0.23058645411252063
28.70000000000066         0.22544002382607267
28.72000000000067         0.2229473696611942
28.740000000000673        0.22298959953001346
28.76000000000067         0.2255674932589306
28.780000000000665        0.23080156625013992
28.800000000000683        0.23894186511633758
28.82000000000067         0.2503880389121782
28.840000000000682        0.26572019903729704
28.860000000000685        0.2857385535040204
28.880000000000685        0.31149817984832756
28.900000000000684        0.3442804245645524
28.920000000000684        0.3852826139177986
28.94000000000068         0.43436079700111535
28.960000000000676        0.48706215828797217
28.98000000000067         0.5339375858179497
29.000000000000668        0.5677159679092774
29.020000000000667        0.5857356042667146
29.04000000000066         0.591027742740393
29.060000000000677        0.585804898492472
29.08000000000067         0.5677895737424098
29.100000000000676        0.5340015402104378
29.120000000000683        0.487312531176636
29.140000000000686        0.43466252971555586
29.160000000000696        0.3856254931445185
29.180000000000703        0.3446647252035299
29.200000000000706        0.31192637740161366
29.220000000000706        0.286214868386302
29.24000000000071         0.266249410913143
29.260000000000716        0.2509726297050078
29.280000000000715        0.23958613839283205
29.300000000000715        0.23151079208165964
29.320000000000725        0.2263477393934754
29.340000000000728        0.22384785666048793
29.360000000000724        0.22389182941243427
29.38000000000073         0.22648048232501758
29.40000000000073         0.231734834751158
29.420000000000734        0.23990591924221183
29.440000000000726        0.25139494313500943
29.46000000000073         0.2667842791564151
29.480000000000736        0.28687725741197084
29.500000000000746        0.31272664804990463
29.520000000000735        0.345611147832985
29.540000000000738        0.3867275737024451
29.560000000000738        0.4359672143607475
29.580000000000727        0.48896063978079823
29.600000000000723        0.5360175832716482
29.62000000000072         0.5699286553713894
29.64000000000072         0.5880206954388699
29.66000000000072         0.5933345957299015
29.680000000000724        0.5880903969599381
29.700000000000724        0.570002503966312
29.720000000000727        0.5360820631963255
29.740000000000734        0.4892131010383867
29.760000000000744        0.4363647149381776
29.780000000000747        0.3870784448069783
29.800000000000757        0.3460067674552796
29.82000000000077         0.31316920124072056
29.840000000000764        0.28737074519976635
29.860000000000763        0.26733335039446626
29.88000000000077         0.2520020618936063
29.900000000000766        0.2405754516453828
29.920000000000773        0.23247216428586046
29.94000000000078         0.2272918297823331
29.96000000000078         0.22478438443451187
29.980000000000786        0.22483007693602222
30.00000000000078         0.2274297656839981
30.02000000000079         0.2327049853161733
30.040000000000784        0.24090941332442412
30.06000000000079         0.2524432763195969
30.080000000000787        0.2678918566533179
30.10000000000079         0.288060281482266
30.1200000000008          0.31400824257535703
30.140000000000796        0.34701957208327683
30.160000000000792        0.38829524213629274
30.180000000000792        0.43772668186296493
30.200000000000784        0.4909286097406391
30.220000000000777        0.5381738476761724
30.240000000000776        0.5722228791363247
30.26000000000078         0.5903906898445823
30.280000000000776        0.5957282307498677
30.300000000000775        0.5904637796493896
30.320000000000782        0.5723687688493654
30.34000000000079         0.5383867865020141
30.360000000000788        0.49119945409992255
30.38000000000081         0.43804691593419853
30.40000000000081         0.388661159512411
30.42000000000081         0.34743152312432385
30.440000000000826        0.3144687153367031
30.46000000000082         0.2885727360481182
30.48000000000082         0.2684602871264402
30.50000000000082         0.25307214473974843
30.52000000000083         0.24160367735515798
30.540000000000827        0.2334712095839376
30.560000000000823        0.2282727755429272
30.580000000000833        0.22575732187669506
30.600000000000836        0.22580480280913567
30.620000000000832        0.2284161469737807
30.640000000000835        0.23371328696752816
30.66000000000084         0.2419493720903373
30.680000000000838        0.25352882008517347
30.70000000000084         0.2690383188407187
30.720000000000844        0.2892863296266651
30.740000000000844        0.31533694044818095
30.760000000000854        0.3484793477904994
30.780000000000847        0.3899196623690889
30.800000000000846        0.43954945846229465
30.820000000000842        0.4929670340635882
30.84000000000084         0.54040698033577
30.86000000000083         0.5745332345428268
30.88000000000083         0.5928436750138812
30.900000000000833        0.5982056267352123
30.92000000000083         0.5929195357734928
30.940000000000843        0.574746776800654
30.96000000000084         0.5406234476767076
30.98000000000085         0.49324290332744253
31.000000000000856        0.439877073098734
31.020000000000866        0.3902956677953331
31.04000000000087         0.3489040403259354
31.060000000000873        0.3158127231003724
31.080000000000886        0.28981663370580546
31.100000000000882        0.26962713105414726
31.12000000000088         0.25418060087687083
31.14000000000088         0.2426674948496503
31.160000000000885        0.23450563968177582
31.180000000000884        0.2292890902198596
31.200000000000887        0.2267658093254349
31.220000000000894        0.2268151720178127
31.240000000000897        0.2294381601684027
31.260000000000897        0.2347574225589998
31.280000000000896        0.24302719488656724
31.300000000000903        0.25465362030801136
31.320000000000903        0.2702258859701476
31.34000000000091         0.29055589627514145
31.360000000000916        0.31671227899627513
31.38000000000091         0.3499897582812576
31.4000000000009          0.3915997386682731
31.420000000000897        0.4415260722690216
31.440000000000904        0.4950683974259228
31.460000000000896        0.5425762957653345
31.480000000000903        0.5769898853704046
31.500000000000888        0.5953823434605972
31.520000000000888        0.600770138445477
31.540000000000887        0.5954628259775204
31.560000000000894        0.5772131908832824
31.580000000000886        0.5429459252548782
31.600000000000904        0.4953667812968276
31.62000000000091         0.4417791925388285
31.640000000000917        0.3919933881457727
31.66000000000093         0.350432492351757
31.680000000000938        0.3172135517285373
31.70000000000093         0.29110574435869124
31.72000000000093         0.27083431534167646
31.740000000000933        0.255327201320191
31.76000000000094         0.2437715533727179
31.780000000000946        0.2355784002641187
31.800000000000946        0.23034236112635978
31.820000000000945        0.22781034104513265
31.840000000000952        0.22786121685469832
31.86000000000095         0.23049599408650684
31.880000000000948        0.23583786986203348
31.900000000000947        0.24414219829579228
31.920000000000954        0.25581690261380197
31.940000000000946        0.27145375224128104
31.96000000000096         0.29186740038022896
31.980000000000967        0.31814014443327426
32.00000000000096         0.3515777944571231
32.02000000000096         0.39340346698158274
32.040000000000944        0.4434733864054826
32.06000000000095         0.49724497389798444
32.080000000000936        0.544959694347286
32.10000000000094         0.5795253657607881
32.12000000000093         0.598001108365937
32.140000000000924        0.6034138219096039
32.16000000000093         0.598081850300576
32.18000000000094         0.5797490737350431
32.20000000000094         0.5453302308726686
32.22000000000094         0.49754464308297397
32.240000000000954        0.4438228437064174
32.26000000000096         0.39380474758416656
32.28000000000096         0.352031317739288
32.30000000000098         0.3186486098593555
32.320000000000974        0.2924345549164496
32.34000000000097         0.27208139641576334
32.36000000000097         0.256512398205718
32.380000000000976        0.24491115328476978
32.40000000000098         0.2366861572436572
32.42000000000098         0.2314303215770967
32.440000000000985        0.2288894932061582
32.46000000000098         0.22894205483205685
32.480000000000985        0.23158904810258304
32.500000000000995        0.2369532082404829
32.52000000000099         0.24529251245583777
32.540000000000994        0.25701625665122874
32.560000000001004        0.27271932714250496
32.58000000000101         0.29322231692009515
32.60000000000099         0.3196072285335256
32.62000000000099         0.3531882812450129
32.640000000000995        0.3951942833821551
32.66000000000099         0.445481558582103
32.68000000000098         0.49948926808164584
32.70000000000097         0.5474173772575966
32.720000000000965        0.5821402356699276
32.74000000000096         0.6007024726996336
32.76000000000096         0.6061417311611383
32.78000000000095         0.6007857306810489
32.80000000000098         0.582302725165492
32.82000000000097         0.5476549057996989
32.84000000000098         0.4997928476433571
32.860000000000994        0.44584276402872963
32.880000000001           0.39560942968559387
32.90000000000101         0.3536579224921983
32.920000000001004        0.320134230261464
32.94000000000101         0.2938105948496106
32.96000000000101         0.27337332214425064
32.980000000001006        0.2577408104435055
33.000000000001           0.24609295059931188
33.02000000000101         0.2378355587657916
33.04000000000101         0.2325597587790385
33.06000000000102         0.23001049473726679
33.080000000001036        0.23006492986885538
33.10000000000102         0.23272465278350213
33.12000000000102         0.23811397210550006
33.140000000001024        0.24649057789170944
33.16000000000102         0.25826623499818196
33.18000000000102         0.27403860325242796
33.20000000000102         0.29463210380853116
33.22000000000102         0.32113379804689884
33.24000000000101         0.3548640843046245
33.26000000000103         0.39705769756559817
33.280000000001024        0.4475710796257434
33.30000000000101         0.5018244379959098
33.320000000001016        0.5499746222780508
33.340000000001           0.5849276026879943
33.360000000000994        0.6035144607862916
33.380000000001004        0.6089811449069453
33.40000000000099         0.6036003616580649
33.42000000000099         0.5850323864403216
33.440000000001014        0.550224953036402
33.46000000000102         0.5021442069755689
33.48000000000102         0.4479503512300379
33.50000000000103         0.397492304853124
33.52000000000103         0.3553549544248216
33.540000000001044        0.3216843093837988
33.56000000000105         0.2952466071846218
33.58000000000105         0.2747218943567735
33.600000000001046        0.2590257588230263
33.62000000000106         0.24732899676498682
33.640000000001045        0.23903757810099027
33.66000000000105         0.2337408004912204
33.68000000000106         0.23118225538007928
33.700000000001054        0.23123924925207312
33.72000000000108         0.23391285445333432
33.74000000000105         0.23932800842376067
33.76000000000106         0.2477436621511131
33.78000000000106         0.2595735786339068
33.80000000000107         0.2754183120084678
33.82000000000106         0.29610627775143566
33.84000000000106         0.32272981457778155
33.860000000001065        0.3566157659055137
33.88000000000106         0.3989362939230704
33.90000000000107         0.44966060366150246
33.92000000000105         0.5042696460061472
33.94000000000104         0.5527878749296966
33.960000000001024        0.5877707706826493
33.98000000000103         0.6064517070282706
34.00000000000102         0.6119473019375945
34.020000000001026        0.6065400455226378
34.040000000001044        0.5878801787117416
34.06000000000105         0.5529041831195805
34.08000000000106         0.5045940603446386
34.10000000000105         0.45014678137013825
34.12000000000106         0.3994561105176854
34.14000000000107         0.35712650284207914
34.16000000000107         0.3232971731773499
34.18000000000107         0.29674885335080803
34.200000000001076        0.2761353195901272
34.22000000000109         0.26036846827483734
34.24000000000108         0.24862182740435962
34.26000000000108         0.24029598151569226
34.280000000001074        0.23497822918624775
34.30000000000109         0.23241094480360483
34.32000000000109         0.23247090989397917
34.340000000001076        0.23515927084666927
34.36000000000109         0.24060163333385107
34.38000000000109         0.24905827198437075
34.4000000000011          0.2609450407874633
34.42000000000109         0.2768680340082602
34.44000000000109         0.29765312511735864
34.46000000000109         0.32439658515629566
34.48000000000109         0.3584240193424819
34.5000000000011          0.40097646794315434
34.5200000000011          0.4519470784371981
34.54000000000109         0.5068248560788386
34.56000000000108         0.5555874717615841
34.58000000000109         0.5907503877856447
34.60000000000107         0.609530927681403
34.62000000000107         0.6150575122755493
34.640000000001066        0.6096229128576931
34.66000000000107         0.5908670390216016
34.68000000000108         0.55571463440694
34.70000000000109         0.507169939303246
34.72000000000111         0.4523573163512826
34.74000000000111         0.4014481755522042
34.76000000000111         0.35895869856114493
34.78000000000111         0.3249981476804973
34.800000000001106        0.29832641941747673
34.820000000001116        0.2776183327604735
34.84000000000112         0.2617802759971628
34.86000000000111         0.24998162133986448
34.880000000001125        0.2416199586168017
34.90000000000113         0.23628052159523574
34.92000000000112         0.2337043825345885
34.94000000000113         0.23376774227742586
34.960000000001116        0.23647183616913928
34.980000000001134        0.24194404306690134
35.00000000000113         0.2504445543589846