% Model:              Untitled.mph
% Version:            COMSOL 5.6.0.280
% Date:               Sep 24 2021, 10:26
% Dimension:          1
% Nodes:              994
% Expressions:        1
% Description:        线图
% cln1x                   Height
49.25                     0.2989012175412255
49.260000000000076        0.29768567345015645
49.28000000000008         0.29773324077357494
49.300000000000104        0.3011731496076574
49.32000000000011         0.3082576745501779
49.340000000000096        0.31942686251685337
49.36000000000012         0.3353447959012119
49.38000000000012         0.35694729611570225
49.40000000000012         0.3854835493692184
49.42000000000013         0.42247867714759985
49.440000000000154        0.46937789105666605
49.46000000000015         0.5262532306149228
49.480000000000146        0.5878566201856306
49.50000000000016         0.64307955872773
49.52000000000017         0.6833587101273004
49.540000000000184        0.7050451688454277
49.56000000000018         0.7112999926808289
49.58000000000018         0.704656419445326
49.600000000000186        0.6825284574726728
49.62000000000019         0.641589006411638
49.64000000000019         0.585188348753309
49.66000000000021         0.5221337825831007
49.680000000000234        0.46373468406278595
49.70000000000021         0.41499546115947045
49.720000000000226        0.3759913358644828
49.74000000000024         0.3452896598679519
49.76000000000023         0.32136737421584377
49.780000000000236        0.30296979990487677
49.800000000000246        0.2891384210501695
49.82000000000026         0.2791768343469257
49.840000000000266        0.2726032700990544
49.86000000000027         0.26911353096187146
49.88000000000028         0.2685567815670469
49.90000000000028         0.2709236139356118
49.920000000000314        0.27634575215246465
49.9400000000003          0.28510747813177306
49.96000000000031         0.2976678593626055
49.9800000000003          0.31469224818334884
50.00000000000031         0.33710000005492996
50.02000000000032         0.3661207804774468
50.040000000000326        0.4032422355100025
50.06000000000035         0.449867846208231
50.08000000000034         0.5058881302813543
50.10000000000035         0.5662981113229235
50.12000000000035         0.6201781152572616
50.140000000000356        0.6593468220604518
50.16000000000036         0.6803687774861622
50.18000000000037         0.6864653636780931
50.20000000000038         0.6801783544833945
50.220000000000375        0.6590021989880328
50.240000000000364        0.619621487324382
50.260000000000396        0.5652231581600358
50.28000000000039         0.5043533887080078
50.30000000000041         0.44779698170904925
50.3200000000004          0.40057862578608644
50.34000000000042         0.36282478302464743
50.36000000000043         0.333142711005284
50.380000000000436        0.3100483174569358
50.40000000000044         0.2923197533657992
50.42000000000046         0.2790297798328944
50.44000000000047         0.2695054186501675
50.46000000000046         0.26328195173109675
50.48000000000047         0.2600670261966933
50.500000000000476        0.2597172232402279
50.520000000000486        0.26222650135876185
50.54000000000049         0.267725835113376
50.5600000000005          0.27649225816327033
50.58000000000052         0.2889776989272362
50.60000000000052         0.305835740308684
50.620000000000516        0.32797163657408507
50.640000000000526        0.3565809815430644
50.66000000000053         0.3931184149529776
50.68000000000056         0.4389510405827942
50.70000000000054         0.4939549371746966
50.720000000000546        0.5531897779362168
50.74000000000055         0.6059303833721362
50.760000000000545        0.6442178465011774
50.78000000000055         0.6647257046246805
50.800000000000544        0.6706712255399566
50.820000000000555        0.6645685815616149
50.84000000000056         0.6438841595564581
50.86000000000058         0.6053838621712028
50.88000000000057         0.5523860768412461
50.90000000000059         0.49284047830812516
50.92000000000061         0.43747905952498534
50.9400000000006          0.39125483971670183
50.96000000000063         0.3543010615562322
50.98000000000063         0.3252560710394561
51.000000000000625        0.3026677421028558
51.02000000000064         0.28534072970182545
51.04000000000065         0.27236817442335637
51.06000000000067         0.263092156605473
51.080000000000666        0.25705867592671866
51.10000000000067         0.253982757953013
51.12000000000068         0.2537243683519084
51.14000000000068         0.2562794940997028
51.16000000000069         0.26177790678976964
51.180000000000696        0.27049445969966357
51.20000000000071         0.2828713412131469
51.2200000000007          0.2995524850946381
51.24000000000072         0.3214278450250007
51.260000000000716        0.34967237736427137
51.280000000000726        0.38571499720575214
51.30000000000074         0.4308966406967045
51.32000000000074         0.48508539029784514
51.34000000000075         0.5433968960764637
51.36000000000074         0.5952601705007835
51.38000000000074         0.6329500884447116
51.40000000000074         0.6530027675515443
51.42000000000074         0.6588326149242896
51.44000000000075         0.6528592849003442
51.46000000000077         0.6325816788411632
51.48000000000077         0.5947874966421216
51.500000000000774        0.542723403655422
51.52000000000079         0.48418005026276995
51.54000000000081         0.42973018764257953
51.5600000000008          0.38426420049872534
51.58000000000082         0.34791901526463265
51.600000000000826        0.3193567935418877
51.62000000000083         0.2971500008206207
51.64000000000084         0.2801235949935554
51.660000000000835        0.2673880241646735
51.68000000000086         0.25829262070916187
51.70000000000086         0.25239402108380965
51.72000000000088         0.24941237628355492
51.74000000000087         0.24921142490641085
51.760000000000886        0.2517874988632996
51.780000000000896        0.25726930840985524
51.8000000000009          0.26592850004833474
51.82000000000092         0.27820160590493126
51.840000000000906        0.294723959600536
51.86000000000092         0.31637333911429266
51.88000000000091         0.34430835056739917
51.90000000000093         0.37993761591142367
51.920000000000925        0.42450939957842
51.940000000000936        0.47800477059109964
51.96000000000094         0.5356726117399844
51.980000000000935        0.5869786657433024
52.00000000000094         0.6239901204338414
52.020000000000934        0.6437425720558265
52.04000000000095         0.6494816154698021
52.06000000000094         0.6436029213966428
52.08000000000094         0.6236337558681785
52.100000000000975        0.5863874532203764
52.12000000000097         0.535056993198809
52.14000000000098         0.4773130668607275
52.160000000001           0.42359513097275464
52.180000000001016        0.3787380066559761
52.20000000000103         0.3428735309652497
52.22000000000103         0.31470476468889075
52.24000000000105         0.29280335895099524
52.26000000000104         0.27601473512975616
52.28000000000106         0.26346161778902577
52.30000000000106         0.2545071632555137
52.320000000001066        0.24871200828833187
52.34000000000109         0.24580054600082787
52.36000000000108         0.2456388855825498
52.380000000001104        0.24822404087744013
52.4000000000011          0.25368375600203247
52.420000000001096        0.2622869655395591
52.440000000001135        0.2744654939258725
52.460000000001116        0.2908475475538584
52.48000000000113         0.31230171017694136
52.50000000000114         0.33996359000905346
52.52000000000114         0.3752194214530361
52.54000000000114         0.41936650052955465
52.560000000001146        0.47230253651628895
52.58000000000115         0.5293482579383623
52.60000000000112         0.5800780354528835
52.62000000000113         0.6166603362109496
52.640000000001116        0.6361743713654872
52.66000000000112         0.6418449917648154
52.680000000001115        0.6360477227386274
52.70000000000113         0.6163342723281332
52.72000000000115         0.5795389065390532
52.74000000000117         0.528815779088032
52.760000000001185        0.4716236405720158
52.780000000001195        0.4185306184043335
52.800000000001205        0.3742145982514293
52.820000000001215        0.3387784567171971
52.840000000001226        0.3109257950030145
52.86000000000124         0.28927344461325427
52.880000000001225        0.27268008885552725
52.90000000000124         0.2602785828863875
52.92000000000125         0.2514395215920829
52.94000000000125         0.24572878735443496
52.96000000000128         0.24287422085090093
52.98000000000127         0.24274384968561244
53.00000000000128         0.24533522294326832
53.020000000001296        0.2507763515376398
53.0400000000013          0.2593323737632517
53.0600000000013          0.27143171298822616
53.08000000000131         0.2876962314783209
53.10000000000133         0.3089837958987299
53.120000000001326        0.3364243410261293
53.14000000000133         0.37138771853705566
53.160000000001325        0.4151576336032568
53.180000000001336        0.467629694484327
53.200000000001324        0.5241618041690387
53.22000000000133         0.5744199059089812
53.240000000001324        0.6106534371540725
53.26000000000131         0.6299759172581928
53.28000000000132         0.6355922335263411
53.30000000000133         0.6298612320599429
53.320000000001336        0.6104219727486837
53.34000000000135         0.5740696499983533
53.360000000001364        0.5236932242302342
53.38000000000139         0.4670399697823545
53.400000000001405        0.4144402841180767
53.4200000000014          0.3705346989165162
53.44000000000142         0.33542728877866756
53.46000000000144         0.3078344768533005
53.480000000001446        0.28638641582040275
53.50000000000144         0.2699527665341938
53.52000000000145         0.25767475243450016
53.540000000001456        0.2489290819810848
53.560000000001466        0.24328535597478698
53.58000000000148         0.2404758014358178
53.60000000000148         0.24036899303698533
53.62000000000148         0.2429629655163998
53.64000000000149         0.24838400150037382
53.660000000001496        0.25689691129592573
53.68000000000151         0.26892627672593045
53.70000000000152         0.2850890803709012
53.720000000001534        0.3062363186234252
53.74000000000153         0.33348871827203724
53.76000000000153         0.3682047830113501
53.780000000001536        0.41165706406789404
53.80000000000154         0.4637394498005821
53.82000000000152         0.5198401869727485
53.84000000000152         0.5695555171426421
53.860000000001506        0.6055706274900445
53.88000000000151         0.6247977874687537
53.90000000000152         0.6303664087355885
53.920000000001515        0.624685590339486
53.940000000001525        0.6054122270390531
53.96000000000154         0.5693613351141773
53.98000000000157         0.5193950449410033
54.0000000000016          0.46319463613731354
54.020000000001595        0.41101133958197394
54.040000000001605        0.3674520536317021
54.060000000001615        0.33262147965452055
54.080000000001625        0.30524695599364277
54.10000000000164         0.28396998550236585
54.12000000000164         0.26766720734602695
54.140000000001656        0.2554923076756717
54.16000000000165         0.24682413967358413
54.18000000000166         0.24123639996096746
54.200000000001666        0.23846211911520107
54.22000000000167         0.23837223266162502
54.240000000001686        0.24096508989303664
54.26000000000169         0.2463663279696382
54.28000000000169         0.2548390881435938
54.300000000001695        0.2668051137413932
54.320000000001706        0.2828771485245826
54.34000000000174         0.3039002451273522
54.360000000001726        0.33098718206162386
54.38000000000173         0.36551493442330596
54.40000000000174         0.4087318907216397
54.420000000001735        0.46050077464683276
54.44000000000173         0.5161271411738483
54.46000000000172         0.565508153857019
54.480000000001716        0.6012727253327503
54.50000000000171         0.6203631475622643
54.52000000000174         0.6258936444018682
54.54000000000171         0.6202597653333372
54.56000000000173         0.6011332141396705
54.58000000000176         0.5653443141665688
54.600000000001764        0.5157314684663811
54.6200000000018          0.4599171706725983
54.640000000001805        0.40808719584941994
54.660000000001816        0.3648498124651436
54.680000000001826        0.3302325986456005
54.700000000001836        0.3030357112398237
54.72000000000187         0.28190207434744063
54.74000000000185         0.26571457841789403
54.76000000000187         0.253626034937439
54.78000000000186         0.24502225118350324
54.80000000000187         0.23947999353758642
54.820000000001876        0.2367342561334278
54.84000000000188         0.2366569992718729
54.8600000000019          0.23924678887376738
54.880000000001885        0.24462867228423948
54.9000000000019          0.2530643206942197
54.92000000000191         0.2649729960623561
54.940000000001916        0.2809611924576236
54.960000000001905        0.30187561617843267
54.98000000000192         0.3288237587613224
55.00000000000195         0.36315391799711
55.020000000001936        0.4061272216937113
55.04000000000193         0.4575988652790619
55.06000000000194         0.5128986404662492
55.080000000001924        0.561981168992358
55.100000000001906        0.5975248586412923
55.12000000000191         0.6164936072794736
55.14000000000191         0.6219884832211253
55.16000000000192         0.6163923717244715
55.18000000000193         0.5973896590983302
55.20000000000194         0.5616825057892202
55.220000000001974        0.5125139528742004
55.24000000000201         0.45713835853815904
55.260000000002           0.40559375177645823
55.280000000002026        0.36254453179284035
55.30000000000204         0.32813325620811185
55.32000000000203         0.3010981371493061
55.340000000002064        0.28009061382568556
55.36000000000205         0.2640005524280995
55.38000000000207         0.25198605508782956
55.40000000000208         0.24343678227903495
55.420000000002084        0.2379321923675943
55.440000000002094        0.23520901744478734
55.4600000000021          0.23514010708605163
55.48000000000212         0.2377235603645439
55.50000000000212         0.24308449312606292
55.52000000000212         0.25148299563481613
55.54000000000213         0.26333614771400266
55.560000000002134        0.2792500917830223
55.580000000002165        0.30006149011516164
55.600000000002154        0.3268739001139439
55.620000000002165        0.3610279152350902
55.640000000002146        0.4037771780593504
55.66000000000215         0.45497641587546994
55.68000000000214         0.5099782794097623
55.70000000000213         0.5587903565471385
55.7200000000021          0.5941349126466842
55.7400000000021          0.6129949657572487
55.76000000000211         0.6184585877773435
55.78000000000212         0.612896383269654
55.80000000000213         0.5939393328917335
55.82000000000214         0.5585037763134147
55.84000000000217         0.509611376047714
55.8600000000022          0.45454072494342324
55.88000000000221         0.403276632486291
55.90000000000223         0.3604602796512066
55.92000000000224         0.326234478478097
55.94000000000226         0.2993448256362006
55.96000000000227         0.2784504422642618
55.98000000000226         0.2624474851940849
56.00000000000228         0.2504988226483857
56.0200000000023          0.24199862988579182
56.040000000002294        0.23652618086729596
56.0600000000023          0.23382138994130702
56.08000000000231         0.23375785256579842
56.100000000002325        0.23633427300596957
56.120000000002314        0.2416744199005826
56.14000000000232         0.25003725086851675
56.160000000002334        0.26183771381256793
56.180000000002345        0.2776788089065277
56.20000000000236         0.2983928136238343
56.220000000002344        0.3250774526757534
56.24000000000236         0.359066165205402
56.26000000000237         0.40160569220578163
56.280000000002346        0.452550507125592
56.30000000000235         0.507280556570361
56.32000000000233         0.555979083096574
56.34000000000233         0.5910645185875537
56.36000000000231         0.6097583335146414
56.38000000000231         0.6151934260675123
56.40000000000232         0.6096649006609648
56.420000000002354        0.5908140811994153
56.44000000000235         0.5555686994561412
56.460000000002374        0.5069325711975962
56.480000000002406        0.45214284872800287
56.50000000000242         0.4011362080669199
56.52000000000245         0.3585333321646028
56.54000000000246         0.3244774299525602
56.56000000000247         0.29772084087636447
56.580000000002485        0.2769322083975288
56.60000000000248         0.2610081863424046
56.620000000002484        0.24911830146782202
56.640000000002495        0.24065929736424793
56.660000000002505        0.23521531645204488
56.68000000000251         0.2325259957947204
56.700000000002525        0.23246563839003984
56.720000000002536        0.2350330281021523
56.74000000000253         0.240351346928671
56.760000000002535        0.24867824613512043
56.780000000002545        0.26042660705048304
56.80000000000255         0.27619643439982183
56.82000000000256         0.2968158474306179
56.84000000000255         0.3233704361434272
56.86000000000257         0.3571789601844423
56.880000000002575        0.39947617817200004
56.900000000002564        0.45015255678409477
56.920000000002545        0.504711230653626
56.940000000002534        0.553168709889033
56.960000000002516        0.58807766357824
56.98000000000251         0.606675449842464
57.000000000002515        0.6120829521034667
57.020000000002526        0.60658515728382
57.04000000000255         0.5878339006972576
57.06000000000255         0.5527684815922013
57.080000000002585        0.5043759225495946
57.10000000000261         0.4498546868423261
57.120000000002634        0.3990259853592084
57.140000000002665        0.35666885290701716
57.16000000000267         0.32279689708214904
57.18000000000268         0.29617523981431915
57.20000000000272         0.27548467086535544
57.2200000000027          0.2596364670402613
57.2400000000027          0.2478034937033743
57.26000000000271         0.23938552239306574
57.280000000002715        0.23396878971689078
57.300000000002726        0.23129425914393206
57.32000000000274         0.23123690436319225
57.34000000000275         0.23379558537580983
57.36000000000275         0.23909296158038684
57.38000000000276         0.24738546980243162
57.40000000000276         0.25908629226664154
57.42000000000277         0.27478817411065914
57.44000000000279         0.2953154674814158
57.460000000002786        0.3217512758690269
57.48000000000279         0.35540794846999363
57.50000000000279         0.39751326473455534
57.520000000002774        0.44795735965870825
57.54000000000276         0.5022623614480152
57.56000000000274         0.5504897405295543
57.58000000000272         0.5852301412705823
57.6000000000027          0.603736035908214
57.62000000000271         0.6091168177105543
57.64000000000271         0.6036476798774546
57.660000000002725        0.5850569324590732
57.68000000000275         0.5502370297877075
57.70000000000278         0.5019410288299592
57.72000000000283         0.4475773657900652
57.74000000000284         0.3970783011201086
57.76000000000286         0.35491686820750284
57.780000000002886        0.3212006451622853
57.80000000000288         0.29470091929272113
57.82000000000291         0.2741049041383689
57.8400000000029          0.25832914728636885
57.86000000000291         0.2465505091166095
57.88000000000292         0.2381716586786469
57.900000000002926        0.23278083451601297
57.920000000002936        0.23012026496608895
57.94000000000295         0.23006573940674058
57.96000000000296         0.23261619687160284
57.98000000000296         0.23789367962481972
58.00000000000297         0.24615351859388845
58.02000000000297         0.2578046021734688
58.040000000002976        0.2734408070742182
58.060000000003           0.29388099433210724
58.080000000003           0.32020321348612885
58.10000000000301         0.35371364139655326
58.120000000002996        0.39563413349724175
58.14000000000299         0.4458546325313168
58.160000000002974        0.49991612594525703
58.18000000000294         0.5479239203015646
58.200000000002916        0.5825042197633645
58.22000000000291         0.6009228101157847
58.24000000000291         0.606279753343151
58.26000000000292         0.6008390281406261
58.28000000000293         0.5823371080725398
58.300000000002946        0.5476803252220857
58.32000000000298         0.4996066966290534
58.340000000003016        0.44548891175058836
58.360000000003055        0.39521577562726184
58.380000000003065        0.3532417399557807
58.40000000000307         0.31967461927019847
58.4200000000031          0.2932915996825127
58.440000000003096        0.2727860439043044
58.46000000000312         0.25707954461611104
58.48000000000312         0.2453511492358887
58.500000000003126        0.2370101741370493
58.520000000003144        0.231644411128472
58.54000000000313         0.22899732488813987
58.56000000000315         0.22894518462894667
58.58000000000317         0.23148702192610282
58.60000000000317         0.2367445507229265
58.62000000000316         0.24497202077897967
58.64000000000318         0.25657653901705246
58.66000000000319         0.2721493160300639
58.68000000000319         0.2925055330285916
58.7000000000032          0.3187184144443642
58.72000000000321         0.35208826746473115
58.74000000000321         0.3938313182248968
58.76000000000319         0.4439299594633367
58.78000000000318         0.49765882127212635
58.80000000000315         0.5453197014955901
58.820000000003134        0.5798190157254829
58.840000000003116        0.5982193801173904
58.86000000000312         0.6035518824036281
58.88000000000313         0.5981377000318929
58.900000000003125        0.5797222853784789
58.920000000003164        0.5452227539482071
58.94000000000318         0.4973632736474152
58.960000000003234        0.4434818499349533
58.980000000003244        0.3934257143726814
59.00000000000329         0.3516316451882869
59.020000000003286        0.31820770861554576
59.0400000000033          0.29193592212423763
59.06000000000332         0.27151551041113536
59.08000000000331         0.2558756092244119
59.100000000003334        0.24419911937152064
59.12000000000334         0.23589368506209954
59.14000000000335         0.23055120161087833
59.16000000000335         0.22791628610880482
59.18000000000335         0.22786577499058158
59.20000000000338         0.2303987297294391
59.220000000003374        0.23563636201258695
59.24000000000338         0.24383185240103267
59.260000000003394        0.2553905837319978
59.2800000000034          0.2709012090781656
59.30000000000341         0.29117450370464487
59.3200000000034          0.3172879409655084
59.34000000000343         0.3505414415558407
59.36000000000342         0.39215196194301044
59.38000000000341         0.4419733133759565
59.40000000000338         0.4954748809422495
59.42000000000336         0.5429307919114513
59.440000000003344        0.5772799215926374
59.46000000000334         0.5955988186957896
59.48000000000332         0.6009080261240717
59.50000000000333         0.5955195927212514
59.52000000000334         0.5771877987791613
59.54000000000337         0.5428404809136657
59.5600000000034          0.49518851847781603
59.58000000000344         0.4416286170560256
59.60000000000346         0.391758888730971
59.620000000003486        0.3500993223579827
59.6400000000035          0.3167938039161046
59.66000000000351         0.2906244547431212
59.680000000003524        0.27028844909007194
59.700000000003534        0.25471311125255974
59.72000000000355         0.243084904844219
59.74000000000354         0.23481405414504294
59.76000000000355         0.22949423303021807
59.78000000000356         0.22687117630195977
59.800000000003564        0.2268222692795651
59.82000000000359         0.22934659914669478
59.84000000000358         0.23456488285567195
59.86000000000359         0.2427276139097686
59.880000000003584        0.2542411283774366
59.9000000000036          0.2696910250883344
59.92000000000361         0.2898868606088827
59.94000000000363         0.3158963105641768
59.96000000000364         0.3490161334808927
59.98000000000362         0.39045791471786373
60.00000000000362         0.44007555400425047
60.02000000000359         0.493356376417631
60.04000000000357         0.54061439538584
60.06000000000351         0.5748191949858322
60.08000000000354         0.5930605824233562
60.10000000000353         0.5983481641791344
60.12000000000353         0.5929843385512562
60.140000000003546        0.574669066638627
60.16000000000356         0.5403955360656693
60.1800000000036          0.49307776961438515
60.20000000000364         0.4397456365820154
60.22000000000367         0.3900803340802442
60.2400000000037          0.34859043994810274
60.26000000000371         0.3154199031257659
60.280000000003724        0.2893561760115706
60.30000000000373         0.26910200036183574
60.32000000000374         0.2535892598391017
60.34000000000376         0.2420078689280401
60.360000000003765        0.233770553534258
60.38000000000377         0.22847271294900992
60.40000000000377         0.22586133603795872
60.42000000000378         0.22581366009394963
60.4400000000038          0.22832928574730746
60.46000000000379         0.23352839820403648
60.4800000000038          0.24166208684499704
60.50000000000381         0.25313250871130394
60.52000000000382         0.268523937893678
60.540000000003815        0.2886426479390687
60.56000000000383         0.3145519150059842
60.58000000000384         0.34754313534814113
60.60000000000383         0.38882279406328024
60.62000000000383         0.43824470303020524
60.6400000000038          0.49131245430127995
60.66000000000378         0.5383774419389143
60.68000000000374         0.5725057532466833
60.70000000000374         0.5906048493964544
60.72000000000373         0.595868913269265
60.74000000000373         0.5905286882292736
60.76000000000374         0.5722915797157548
60.78000000000378         0.5381608003577638
60.80000000000381         0.4910372919393298
60.82000000000385         0.4379207268822581
60.84000000000388         0.38845421115683265
60.86000000000391         0.34712940821874
60.880000000003925        0.31409027207509954
60.900000000003935        0.2881294279950281
60.920000000003945        0.2679550224542776
60.940000000003955        0.25250559462533956
60.96000000000397         0.24096930693372104
60.980000000003976        0.23276420968220998
61.00000000000398         0.22748747609083259
61.02000000000399         0.22488695941503345
61.040000000004014        0.2248410424653882
61.06000000000401         0.22734880795671106
61.080000000004006        0.23252998493980248
61.100000000004016        0.2406346813985286
61.12000000000401         0.2520634695454858
61.140000000004044        0.2673983179539532
61.16000000000405         0.2874423160520887
61.18000000000404         0.3132544934609114
61.20000000000406         0.3461210156878335
61.22000000000405         0.38717630230788097
61.24000000000403         0.43638420902044545
61.260000000004           0.48934302637252763
61.28000000000398         0.5363550554478067
61.30000000000395         0.5702087659558805
61.32000000000393         0.5882345338341206
61.34000000000392         0.5934773958791821
61.36000000000393         0.5881598038847592
61.380000000003946        0.5699974898264671
61.40000000000398         0.5360038810225805
61.42000000000402         0.4890675081969415
61.440000000004055        0.43615933063885903
61.46000000000409         0.3868852853722607
61.48000000000412         0.3457203589259508
61.50000000000413         0.31280202497084714
61.52000000000415         0.2869480160917723
61.54000000000415         0.2668524623954572
61.56000000000416         0.25145970849599525
61.580000000004176        0.23996768598854598
61.60000000000417         0.23179434832189846
61.62000000000419         0.226538493858352
61.640000000004186        0.22394901163103034
61.6600000000042          0.22390480044929678
61.68000000000422         0.2264049750111824
61.70000000000422         0.23156882309645788
61.72000000000422         0.23964550463939288
61.74000000000422         0.25103405964206765
61.76000000000424         0.26631666395700043
61.78000000000424         0.2862868064759659
61.80000000000425         0.311997930157583
61.82000000000427         0.3447234858726903
61.84000000000425         0.3856540743985725
61.86000000000425         0.4346788041987197
61.88000000000421         0.48743844986622203
61.900000000004184        0.5342710882799665
61.92000000000415         0.5679942050731356
61.940000000004154        0.5859494992079268
61.960000000004136        0.5911722069950267
61.98000000000414         0.585876853560584
62.00000000000414         0.5677872114380695
62.02000000000418         0.5339263417640383
62.04000000000423         0.4871766462192292
62.06000000000426         0.43437277687681264
62.08000000000429         0.38530813631472494
62.100000000004336        0.3443370520185104
62.12000000000433         0.3115682621341834
62.140000000004356        0.2858103015073141
62.16000000000435         0.2657892588532788
62.18000000000436         0.25045358662272144
62.20000000000439         0.23900433281452674
62.22000000000437         0.2308617097926287
62.24000000000437         0.22562607302848736
62.2600000000044          0.2230472967249963
62.2800000000044          0.2230047832038827
62.300000000004424        0.2254976921683039
62.320000000004406        0.23064591231895906
62.34000000000444         0.23869623165828066
62.36000000000444         0.2500466794955306