% Model:              Untitled.mph
% Version:            COMSOL 5.6.0.280
% Date:               Oct 6 2021, 16:55
% Dimension:          1
% Nodes:              1015
% Expressions:        1
% Description:        线图
% cln1x                   Height
49.2                      0.33788904206858666
49.21999999999992         0.33638841677911596
49.23999999999991         0.3402365765166083
49.259999999999906        0.34979288725924623
49.2799999999999          0.3657502405376759
49.2999999999999          0.38916247417192784
49.319999999999894        0.4214063662643163
49.339999999999876        0.4638364661288168
49.35999999999987         0.5164029222827289
49.37999999999987         0.5742791116006509
49.399999999999864        0.6264711398618679
49.41999999999985         0.6644033030765545
49.43999999999984         0.684697248401265
49.45999999999984         0.6905011636916916
49.47999999999982         0.6841779333130261
49.499999999999815        0.6631774401823316
49.519999999999825        0.6241990444463947
49.53999999999983         0.5705032152355145
49.55999999999981         0.5106164203767805
49.57999999999979         0.4555961556801047
49.59999999999979         0.4103578545676309
49.61999999999979         0.3750088273306693
49.63999999999978         0.3482140796835063
49.65999999999977         0.3285849358462489
49.67999999999976         0.3150301489450157
49.699999999999775        0.3067969268626796
49.71999999999975         0.30344370757156003
49.739999999999746        0.3048131241061421
49.759999999999735        0.311018702201904
49.77999999999973         0.322455524729342
49.79999999999973         0.3398257194732623
49.81999999999972         0.36416452858400844
49.839999999999705        0.3968022250340241
49.85999999999971         0.4390283206842122
49.87999999999969         0.49075346697039
49.89999999999969         0.5472570861949876
49.91999999999969         0.5979162304457594
49.939999999999685        0.6346041328703272
49.959999999999695        0.6541943642873856
49.97999999999967         0.6598548292116927
49.99999999999967         0.6539435938645094
50.01999999999966         0.6340427711357915
50.03999999999966         0.5969315681402194
50.05999999999963         0.5457019536784159
50.07999999999962         0.48846503032476374
50.09999999999962         0.435864391915681
50.11999999999961         0.39265130763055445
50.1399999999996          0.35893705562815104
50.1599999999996          0.3334422348246864
50.17999999999959         0.3148364341394249
50.19999999999959         0.30207584638490514
50.219999999999565        0.2944423611096577
50.23999999999957         0.2915173089238064
50.25999999999958         0.29315485473151437
50.27999999999956         0.2994733721972761
50.299999999999564        0.3108580264733746
50.319999999999546        0.3279937028207622
50.339999999999534        0.3518861352404893
50.35999999999952         0.3838252928657697
50.37999999999953         0.4250579920795631
50.39999999999952         0.475484401835726
50.41999999999951         0.5304919725801766
50.43999999999951         0.579739275218869
50.4599999999995          0.615366338229908
50.479999999999485        0.6343677731062309
50.499999999999496        0.6398634770055005
50.519999999999506        0.634165787206826
50.53999999999948         0.6148585094431562
50.559999999999484        0.578989765121126
50.579999999999465        0.5293430570977996
50.59999999999946         0.4738342887163726
50.61999999999943         0.4228163555158043
50.639999999999425        0.3809199208109739
50.65999999999942         0.34825766113983964
50.67999999999942         0.32358842673952737
50.69999999999941         0.3056215350226596
50.71999999999941         0.29334507080680644
50.7399999999994          0.2860638225920729
50.759999999999394        0.2833737945022394
50.77999999999938         0.28513645546650884
50.79999999999938         0.2914688012136018
50.819999999999375        0.30275232940355445
50.839999999999364        0.3196595210703706
50.85999999999936         0.3431686995887664
50.87999999999935         0.37454233483735033
50.89999999999935         0.41499635524746
50.91999999999935         0.4644254196482617
50.939999999999344        0.5183023844346075
50.95999999999935         0.5664989864172745
50.97999999999934         0.6013452455937555
50.99999999999934         0.6199185280123105
51.01999999999934         0.6252937558879289
51.039999999999324        0.6197447219541659
51.05999999999931         0.6009082454471549
51.07999999999932         0.5657454814442124
51.09999999999929         0.5173837142948733
51.11999999999929         0.4631356216461171
51.13999999999926         0.4132735975013558
51.159999999999265        0.3723357631281277
51.17999999999925         0.3404351080845117
51.19999999999925         0.3163587318447516
51.21999999999923         0.29884525909020476
51.23999999999922         0.28690617364005055
51.259999999999216        0.2798629212739683
51.27999999999921         0.27732200156560105
51.299999999999216        0.2791498454189525
51.31999999999921         0.28546319297644646
51.339999999999186        0.29663799525094736
51.35999999999919         0.3133342133117805
51.37999999999918         0.33651650153584445
51.39999999999917         0.3674204735172963
51.41999999999917         0.4072396966405745
51.43999999999916         0.4558658654195139
51.45999999999917         0.5088415093264599
51.47999999999916         0.5562078188141331
51.49999999999915         0.5904408077238287
51.51999999999914         0.6086796925593511
51.53999999999913         0.6139599253577013
51.55999999999914         0.608522589084011
51.57999999999914         0.590045929744786
51.59999999999913         0.5555361656791927
51.619999999999116        0.5080561819258058
51.6399999999991          0.4548828362799343
51.65999999999908         0.4058331748769701
51.679999999999076        0.36564093441534556
51.699999999999065        0.3343304178607989
51.719999999999075        0.31071086267331205
51.73999999999905         0.2935438540917642
51.75999999999907         0.2818591403083413
51.779999999999035        0.27499109088867196
51.799999999999045        0.27255425027405233
51.81999999999903         0.274418707180698
51.83999999999902         0.2807007140214134
51.85999999999902         0.29177151935934575
51.879999999999           0.3082818122121891
51.899999999999004        0.33118698115395906
51.919999999999           0.361689147906196
51.93999999999898         0.40097780124845733
51.959999999998985        0.4489379853027012
51.97999999999898         0.5011702939541318
51.999999999998984        0.5478551125344354
52.019999999998994        0.5815863284524205
52.039999999998976        0.5995522454379424
52.05999999999897         0.6047543064263856
52.07999999999897         0.599405678656919
52.099999999998964        0.5812182057963042
52.119999999998946        0.5472362990468266
52.139999999998935        0.5004747169393319
52.159999999998924        0.44809807331492246
52.179999999998905        0.3998449398424084
52.19999999999889         0.3601962324355128
52.21999999999889         0.32936411353237177
52.23999999999886         0.30611353056160445
52.25999999999887         0.2892247749827712
52.27999999999887         0.27774244096255274
52.299999999998846        0.27101136085745064
52.31999999999886         0.2686525373072075
52.33999999999883         0.27053891176030176
52.35999999999885         0.27678617600219235
52.37999999999882         0.2877615438312754
52.39999999999882         0.3041079015177605
52.41999999999882         0.32676871576943906
52.43999999999881         0.35695422369773916
52.45999999999879         0.39582890548178334
52.4799999999988          0.4431633327311258
52.4999999999988          0.4947682194515324
52.51999999999882         0.5408799517111677
52.53999999999882         0.574190428128983
52.55999999999881         0.5919283209251974
52.57999999999881         0.5970655963970798
52.59999999999879         0.5917916997982192
52.6199999999988          0.5738465808654408
52.63999999999878         0.5403064607016422
52.65999999999877         0.49414588402955406
52.67999999999875         0.44243528637773133
52.69999999999873         0.39479497349435816
52.71999999999872         0.3556769769724546
52.739999999998695        0.32522084498090237
52.75999999999871         0.3022782853302934
52.779999999998694        0.2856214843718116
52.79999999999869         0.2743073892836488
52.819999999998686        0.2676895327439912
52.83999999999866         0.26539427531960985
52.859999999998664        0.2672969021671274
52.879999999998674        0.27351259034717207
52.899999999998656        0.2844051275312347
52.91999999999866         0.30061082323169963
52.93999999999864         0.32306312639702045
52.95999999999864         0.3529591097423947
52.97999999999863         0.3914501074427787
52.999999999998614        0.43839228804762276
53.019999999998625        0.4893816649247348
53.03999999999863         0.5350098939065699
53.059999999998624        0.5679660180449917
53.079999999998634        0.5855124121512093
53.099999999998644        0.5905957690708821
53.119999999998626        0.5853854673442446
53.139999999998636        0.567645114661874
53.159999999998604        0.5344773941456589
53.1799999999986          0.4888228888154103
53.19999999999856         0.4376723055212326
53.219999999998564        0.39054673324504596
53.23999999999853         0.35185401792064813
53.25999999999853         0.32173802519859
53.27999999999852         0.2990470214965782
53.29999999999851         0.282584683074662
53.3199999999985          0.2714098688340723
53.339999999998504        0.26488453973361903
53.359999999998486        0.26263949711579637
53.37999999999847         0.2645519212317543
53.399999999998485        0.27073646368976173
53.41999999999847         0.28155391446910805
53.43999999999846         0.29763490831456996
53.45999999999846         0.31990430881800236
53.47999999999847         0.34954794360337343
53.499999999998444        0.38770595661152063
53.51999999999846         0.43423439364883687
53.53999999999845         0.484761655602362
53.55999999999847         0.5299784443998932
53.57999999999848         0.562629728093608
53.599999999998474        0.580011455840626
53.6199999999985          0.5850479748476825
53.639999999998466        0.5798908676050479
53.65999999999847         0.562324065123762
53.679999999998444        0.5294740442324873
53.69999999999843         0.48425259266658427
53.71999999999839         0.43358301144793776
53.73999999999838         0.38690017523141224
53.759999999998364        0.34857307506404195
53.779999999998374        0.3187448495574389
53.79999999999834         0.2962746393067695
53.81999999999834         0.2799751921554195
53.83999999999833         0.2689209272075147
53.859999999998315        0.26247342131449675
53.87999999999832         0.26026947139072054
53.8999999999983          0.26218785377866927
53.919999999998296        0.268342723573723
53.939999999998285        0.27909223468419153
53.95999999999828         0.2950620664805937
53.97999999999828         0.3171696122543625
53.99999999999827         0.3465909531048104
54.01999999999826         0.38445656662652083
54.03999999999828         0.43062255010376405
54.05999999999826         0.4807501873531184
54.079999999998286        0.5254741343792383
54.099999999998296        0.5579280770626074
54.1199999999983          0.5752280229372274
54.139999999998295        0.5802238244018044
54.15999999999829         0.5751126910712477
54.17999999999828         0.5576962660366704
54.19999999999826         0.5251220656203259
54.21999999999824         0.4802769366419662
54.23999999999821         0.430025813240834
54.2599999999982          0.3837282416355881
54.279999999998175        0.3457191320443746
54.299999999998164        0.3161409449411469
54.31999999999816         0.29386229242570905
54.339999999998156        0.277705756733161
54.359999999998145        0.26675180764520584
54.379999999998134        0.2603724888121644
54.39999999999813         0.2582028127276664
54.41999999999813         0.26012459166946766
54.439999999998115        0.2662515069957142
54.459999999998104        0.27693936128957664
54.4799999999981          0.29280944329178277
54.49999999999809         0.3147725404262792
54.5199999999981          0.3439961332224329
54.53999999999809         0.3816022155386668
54.55999999999809         0.4274471088155096
54.57999999999811         0.4772216750524761
54.59999999999813         0.5216267368635532
54.61999999999812         0.5538474666955955
54.63999999999813         0.5710214902854347
54.65999999999812         0.5759835970716586
54.67999999999812         0.5709141954535085
54.699999999998106        0.5536314665823541
54.71999999999809         0.5213007457594822
54.73999999999806         0.4767867337681075
54.75999999999803         0.42690223898140556
54.77999999999802         0.38094136129132466
54.799999999998           0.34320977350435117
54.81999999999799         0.3138494678445256
54.83999999999798         0.29173730840715983
54.859999999997974        0.2757044382875245
54.87999999999796         0.2648380790296246
54.89999999999796         0.25851411472795066
54.91999999999795         0.2563728993180752
54.93999999999793         0.25829482596260783
54.95999999999793         0.26439393795160604
54.979999999997936        0.2750238956237114
54.99999999999791         0.2908020395958189
55.01999999999792         0.3126332469701616
55.03999999999791         0.3416773302420073
55.059999999997906        0.3790487570722507
55.079999999997916        0.4246040834821106
55.09999999999791         0.4740604324382566
55.11999999999793         0.5181776285007688
55.13999999999795         0.5501874700941451
55.15999999999795         0.5672477745577605
55.17999999999794         0.5721776995739428
55.199999999997935        0.567144469946743
55.21999999999793         0.5499802371390038
55.23999999999791         0.5178666996447112
55.25999999999789         0.47364876263307853
55.279999999997855        0.4240929892942857
55.29999999999784         0.3784341333275972
55.31999999999782         0.34095112507753406
55.33999999999781         0.3117854539432063
55.3599999999978          0.289821428100095
55.37999999999778         0.2738979061650112
55.39999999999778         0.26310818047408596
55.41999999999778         0.25683235060476434
55.439999999997774        0.2547132666546427
55.45999999999776         0.2566330982046687
55.479999999997766        0.2627028571116697
55.49999999999775         0.27327671071071497
55.51999999999775         0.2889675112498742
55.539999999997754        0.31067469884922044
55.559999999997736        0.33955105377334827
55.57999999999774         0.3767041698854565
55.599999999997735        0.4219908895303635
55.619999999997745        0.47115249008661936
55.63999999999776         0.5150030351614726
55.659999999997765        0.5468174105061367
55.67999999999779         0.5637719584770331
55.69999999999778         0.5686713583011423
55.71999999999777         0.5636713911110645
55.739999999997764        0.5466142821236044
55.75999999999774         0.5146998338103356
55.77999999999771         0.4707539892070497
55.799999999997695        0.4215011764049026
55.81999999999766         0.37612093718196743
55.83999999999766         0.3388671028748368
55.85999999999763         0.3098806168454825
55.87999999999763         0.2880526784193131
55.89999999999761         0.27222928744742425
55.9199999999976          0.2615093425311977
55.9399999999976          0.25527682830003845
55.9599999999976          0.2531769049495791
55.97999999999758         0.25509259758298747
55.999999999997584        0.26113604284509373
56.01999999999757         0.2716545416084831
56.039999999997555        0.28726246614535006
56.059999999997565        0.3088525191790243
56.079999999997554        0.3375709033868737
56.099999999997564        0.37451879681929257
56.11999999999755         0.4195534020658762
56.13999999999756         0.46843890594150894
56.159999999997574        0.5120403854420172
56.17999999999759         0.5436726016603299
56.19999999999759         0.5605290469330316
56.21999999999759         0.5654005376135115
56.2399999999976          0.560431386145931
56.25999999999758         0.5435351328947361
56.27999999999757         0.5118733522687114
56.299999999997524        0.46805497806688656
56.319999999997506        0.41908379718662614
56.339999999997474        0.3739620641292044
56.359999999997456        0.3369205385040534
56.379999999997445        0.3080997133418406
56.39999999999743         0.28639718370122796
56.41999999999743         0.2706655657477229
56.43999999999743         0.2600089423700681
56.459999999997414        0.25381487498790345
56.47999999999742         0.2517306347930766
56.4999999999974          0.2536400166667803
56.5199999999974          0.2596546082221033
56.5399999999974          0.27012196715456044
56.55999999999739         0.2856478842052892
56.57999999999738         0.30712321195510894
56.59999999999738         0.3356891397491599
56.61999999999737         0.37243963016422205
56.63999999999738         0.41723229156581865
56.65999999999741         0.4658532719270883
56.67999999999741         0.5092164104752954
56.69999999999742         0.5406744696632635
56.719999999997434        0.5574372849605193
56.73999999999743         0.5622824577751211
56.759999999997426        0.5573434777980462
56.779999999997415        0.540544722574164
56.79999999999739         0.5090609303770296
56.81999999999736         0.465490630151881
56.839999999997325        0.41678202522521923
56.85999999999731         0.37190558895079806
56.87999999999729         0.33506540133881035
56.89999999999727         0.3064016104387942
56.91999999999726         0.2848178514641795
56.939999999997255        0.2691729844792291
56.959999999997244        0.2585759850526228
56.97999999999724         0.25241778413247473
56.99999999999724         0.25034762936514127
57.01999999999722         0.25225002789937323
57.03999999999723         0.25823604435714426
57.0599999999972          0.268651408538215
57.07999999999721         0.28409870823564864
57.09999999999719         0.3054594485110437
57.119999999997184        0.33388274643432175
57.13999999999719         0.3704427717799464
57.159999999997204        0.4150022015010048
57.17999999999721         0.46336834386110254
57.19999999999723         0.5065019496362141
57.21999999999725         0.5377922524596627
57.23999999999725         0.554464682596784
57.259999999997255        0.5592838836892158
57.27999999999725         0.5543725955834586
57.29999999999723         0.5376656600436847
57.319999999997215        0.5063514263646565
57.339999999997175        0.46301386289901153
57.359999999997136        0.41448294231114746
57.37999999999713         0.36986669690018265
57.39999999999709         0.33327912343531185
57.41999999999708         0.30476721257234596
57.43999999999708         0.28329825076493254
57.459999999997066        0.2677371824450299
57.47999999999707         0.25719774334467804
57.49999999999705         0.25107413828145103
57.519999999997054        0.2490175327802965
57.53999999999705         0.2509131265236577
57.55999999999704         0.2568715006738995
57.579999999997035        0.26723665658990275
57.59999999999704         0.28260808833235046
57.61999999999703         0.3038627847092903
57.63999999999702         0.3321218365922182
57.659999999997005        0.36852031658289264
57.679999999997015        0.4128548562407359
57.69999999999703         0.4609753799227487
57.71999999999706         0.5038879144379862
57.73999999999709         0.5350167624056575
57.75999999999709         0.5516023406579185
57.779999999997095        0.5563967469662615
57.79999999999708         0.55151240706725
57.81999999999707         0.5348942618682028
57.83999999999705         0.5037436207559902
57.85999999999702         0.46063038440562887
57.879999999996976        0.41234857692502935
57.89999999999696         0.367960603950155
57.91999999999693         0.33153817261953306
57.93999999999692         0.3031945829971165
57.959999999996896        0.2818361639658768
57.97999999999689         0.2663557996143692
57.99999999999689         0.25587179401350163
58.01999999999689         0.2497814929616125
58.03999999999688         0.24773789791792483
58.05999999999687         0.24962686240943063
58.07999999999686         0.2555584925766066
58.099999999996854        0.2658751379113629
58.11999999999685         0.28117331647149424
58.13999999999683         0.30232563112534755
58.15999999999685         0.33044757823176296
58.17999999999683         0.3666112060187884
58.19999999999685         0.41070591050109045
58.21999999999684         0.4586696175265006
58.23999999999686         0.5013696388464526
58.259999999996886        0.5323437240743404
58.279999999996896        0.5488466031875241
58.29999999999691         0.553617945037013
58.319999999996895        0.5487603313609977
58.339999999996884        0.5322285348142363
58.35999999999686         0.5012360252071464
58.37999999999684         0.45833903482269267
58.399999999996794        0.410296601750631
58.41999999999678         0.3661276538824067
58.439999999996736        0.3298849292616028
58.45999999999675         0.3016768640097569
58.47999999999672         0.28042902438210715
58.49999999999673         0.2650259604068867
58.51999999999671         0.2545949456040197
58.53999999999671         0.24853632745557686
58.55999999999669         0.24650485775776837
58.57999999999669         0.24838700378281775
58.59999999999668         0.2542923988628721
58.61999999999667         0.26456180114556244
58.63999999999667         0.2797888901184637
58.659999999996664        0.30084205065445
58.67999999999666         0.3288313891013234
58.69999999999665         0.36482375507513914
58.71999999999667         0.4087088314947112
58.73999999999667         0.45644845713881116
58.75999999999671         0.49893715402763805
58.77999999999671         0.5297607994102985
58.799999999996736        0.5461826878594592
58.81999999999675         0.5509306226906391
58.839999999996735        0.5460973545611851
58.85999999999673         0.5296470807481566
58.8799999999967          0.4988058784481773
58.89999999999667         0.45611714399812187
58.91999999999662         0.40830688279987243
58.9399999999966          0.3643509653948947
58.95999999999657         0.32828300090717005
58.97999999999655         0.30021107492558
58.99999999999655         0.2790671093561912
59.019999999996536        0.2637398790439144
59.039999999996525        0.2533579755602014
59.05999999999653         0.24732980265872284
59.07999999999651         0.24530974671299532
59.09999999999652         0.2471848700420509
59.119999999996494        0.2530643380039876
59.1399999999965          0.2632873510917923
59.15999999999648         0.27844483649174195
59.179999999996475        0.2994010913631384
59.19999999999647         0.3272609597781338
59.21999999999647         0.36308621874555946
59.23999999999648         0.4067668745896244
59.2599999999965          0.4542831111648804
59.27999999999653         0.49669473241609
59.29999999999655         0.5272492842719849
59.31999999999656         0.5435929691477601
59.33999999999658         0.5483187100987663
59.35999999999657         0.5435097957760596
59.37999999999657         0.5271396309334412
59.399999999996524        0.49644620186620875
59.419999999996485        0.45396028249308085
59.43999999999644         0.4063753924488596
59.45999999999641         0.3626259751279313
59.479999999996394        0.3267273879224665
59.49999999999637         0.29878742656942925
59.51999999999638         0.27774308754776966
59.53999999999637         0.26248839519450967
59.55999999999636         0.252157647666668
59.579999999996346        0.2461572980294611
59.59999999999635         0.24414814491607364
59.61999999999635         0.24601622929588304
59.63999999999633         0.2518702457438826
59.65999999999634         0.2620478592372672
59.67999999999632         0.2771373044188562
59.699999999996315        0.2979989099944575
59.71999999999631         0.3257323877939826
59.73999999999631         0.3613945507380071
59.75999999999632         0.40487575546725324
59.77999999999634         0.45217426557440454
59.79999999999637         0.4943906307624792
59.8199999999964          0.5248619421894145
59.839999999996415        0.5410730977677017
59.859999999996425        0.5457770447341371
59.879999999996414        0.5409925165936816
59.89999999999641         0.5247011450300794
59.91999999999637         0.4941522056793518
59.93999999999633         0.4518640599647045
59.95999999999629         0.4044982863432201
59.97999999999626         0.3609494010209474
59.999999999996234        0.32521530429670925
60.019999999996216        0.29740355284441594
60.0399999999962          0.27645604935664797
60.059999999996194        0.26127189395166567
60.0799999999962          0.25098936540342237
60.09999999999619         0.2450184530531437
60.11999999999618         0.2430191507658189
60.13999999999617         0.2448804419990971
60.159999999996174        0.25070977026240565
60.17999999999617         0.2608433109224876
60.19999999999616         0.27586668829707456
60.21999999999616         0.2966364057123703
60.239999999996144        0.32424724566657454
60.25999999999614         0.3597512276907308
60.27999999999616         0.40303899073513016
60.299999999996174        0.4501260255306751
60.31999999999623         0.4921520509528986
60.33999999999624         0.5224851086922991
60.35999999999627         0.5386220329402625
60.37999999999627         0.5433044655966944
60.399999999996254        0.5385424234479024
60.419999999996264        0.5223261026466127
60.43999999999621         0.4919165017807575
60.45999999999617         0.4498202097186265
60.479999999996124        0.402668375293373
60.4999999999961          0.35931583195935773
60.51999999999608         0.32374284532562064
60.53999999999606         0.29605663739704685
60.55999999999605         0.2752039423667619
60.57999999999605         0.2600888626823212
60.599999999996044        0.24985359577691882
60.61999999999601         0.24391082423456692
60.63999999999603         0.24192210630884634
60.65999999999602         0.24377618104749427
60.67999999999601         0.2495824473070243
60.69999999999602         0.2596732351885242
60.719999999996           0.2746324208286224
60.73999999999601         0.29531277501656206
60.75999999999598         0.32280429295005625
60.77999999999599         0.3581543322776272
60.799999999996           0.4012538436654403
60.81999999999603         0.44813531522171457
60.839999999996074        0.4899768567136836
60.85999999999609         0.5201763100999944
60.87999999999611         0.5362419963928152
60.89999999999611         0.5409044004376616
60.91999999999611         0.5361643143018667
60.93999999999609         0.5200227868928714
60.95999999999606         0.48974941617609663
60.97999999999602         0.4478399414614875
60.99999999999597         0.40089550349074576
61.019999999995946        0.35773296508954555
61.03999999999591         0.3223159072562208
61.05999999999589         0.29475129000930717
61.079999999995884        0.27399049366998246
61.09999999999587         0.25894243078822904
61.11999999999587         0.24875307118781534
61.139999999995865        0.24283769271971276
61.15999999999586         0.24085936613052772
61.17999999999585         0.24270735580995775
61.199999999995846        0.24848905740320126
61.21999999999584         0.25854012279214794
61.23999999999583         0.27343723565546413
61.259999999995834        0.29403111616548316
61.27999999999582         0.3214071262950149
61.29999999999583         0.35660812857505314
61.31999999999584         0.3995253797418309
61.33999999999586         0.44620784158715987
61.35999999999591         0.4878708197947185
61.379999999995924        0.5179409668281643
61.399999999995934        0.5339376588201309
61.419999999995945        0.5385804356195294
61.43999999999594         0.5338617408484997
61.45999999999592         0.5177341522648299
61.4799999999959          0.4875279831984892
61.49999999999586         0.4459197717623618
61.51999999999582         0.3991766530999307
61.539999999995786        0.35619890753287026
61.55999999999577         0.32093353762638366
61.57999999999574         0.2934871866202996
61.59999999999573         0.27281577421595343
61.61999999999572         0.2578329112201527
61.63999999999571         0.24768825018381233
61.65999999999571         0.24179960599178296
61.6799999999957          0.23983153038062216
61.69999999999568         0.24167380756054704
61.719999999995686        0.24743343138978488
61.739999999995675        0.25744266013388534
61.75999999999567         0.2722819018080637
61.77999999999567         0.2927922690182114
61.79999999999566         0.32005667497038887
61.819999999995666        0.35511365877757367
61.839999999995676        0.39785479035538635
61.85999999999571         0.44434495547183844
61.87999999999576         0.4858354134557851
61.89999999999578         0.5157806536948494
61.9199999999958          0.5317107313510174
61.93999999999579         0.5363346022384176
61.959999999995794        0.531636647463128
61.979999999995776        0.515577714425606
61.999999999995744        0.4854986224909416
62.019999999995704        0.44405922163506006
62.039999999995665        0.39751596834565606
62.05999999999562         0.35471684189654834
62.07999999999561         0.31959810257761206
62.099999999995575        0.29226609259814673
62.119999999995585        0.27168111326779426
62.13999999999556         0.25676130706623934
62.15999999999555         0.24665988082181023
62.17999999999553         0.24079710170393023
62.19999999999554         0.23883896020579246
62.21999999999554         0.24067574633755337
62.23999999999553         0.24641406476341446
62.25999999999553         0.25638486518105547
62.27999999999552         0.2711651693818088
62.299999999995514        0.29160037886270573
62.31999999999551         0.318752490944188