% Model:              Untitled.mph
% Version:            COMSOL 5.6.0.280
% Date:               Oct 6 2021, 16:55
% Dimension:          1
% Nodes:              994
% Expressions:        1
% Description:        线图
% cln2x                   Height
21.910000000000007        0.21637690513167654
21.920000000000027        0.2166056329919231
21.940000000000026        0.21893021157833736
21.960000000000033        0.22385037961984844
21.980000000000036        0.23160464808730263
22.000000000000036        0.24257675886856578
22.020000000000035        0.2573251902161097
22.040000000000042        0.2766208250109373
22.060000000000045        0.30147924926209035
22.080000000000037        0.33313147558550144
22.100000000000048        0.3727287862838109
22.120000000000054        0.42025059994847114
22.14000000000005         0.4712061327650413
22.160000000000046        0.5163916826013242
22.180000000000042        0.5491008534509368
22.200000000000042        0.5665570183034712
22.220000000000052        0.5716529902719272
22.240000000000048        0.5665933183432929
22.260000000000055        0.5492290369339685
22.28000000000007         0.5166090161985871
22.30000000000006         0.4712963177151124
22.32000000000006         0.42022828272622015
22.340000000000064        0.37276142428304954
22.360000000000067        0.33312232895023747
22.38000000000007         0.30142177527250485
22.40000000000007         0.27650841181383407
22.42000000000007         0.2571507908531846
22.44000000000008         0.24233484622728502
22.460000000000075        0.23128676140168503
22.48000000000008         0.22344571638100869
22.50000000000008         0.21842560449331727
22.52000000000009         0.21598522055330552
22.540000000000084        0.2160089020665212
22.560000000000088        0.21849713816012287
22.58000000000009         0.2235665965420333
22.600000000000097        0.23145955697552706
22.620000000000093        0.242563263317672
22.640000000000096        0.2574395873585173
22.6600000000001          0.27686205485780524
22.6800000000001          0.30185830142799475
22.700000000000095        0.3336678937453178
22.720000000000102        0.37345063547275825
22.7400000000001          0.4210630854279774
22.76000000000011         0.4721711113983926
22.780000000000108        0.5174853364855571
22.800000000000107        0.550285795909659
22.820000000000103        0.5677916438441681
22.84000000000011         0.5729040697401377
22.86000000000011         0.5678346413968959
22.88000000000011         0.5504316465650289
22.900000000000112        0.5177398744602579
22.920000000000122        0.4723291641011309
22.94000000000012         0.42124151344068583
22.96000000000012         0.3736528239442957
22.98000000000013         0.3338935542504577
23.00000000000013         0.3021086526795225
23.02000000000013         0.27713908392118103
23.040000000000134        0.2577433101293099
23.06000000000014         0.24289882882833974
23.080000000000137        0.2318301658724291
23.10000000000014         0.22397531057651662
23.12000000000014         0.218947351999589
23.140000000000146        0.21650460291264365
23.160000000000146        0.2165312004269722
23.180000000000152        0.21902769706087016
23.200000000000152        0.2241110912100972
23.220000000000162        0.2320227236817691
23.24000000000015         0.24315332628330127
23.260000000000154        0.25806559870179774
23.28000000000016         0.27753711466609315
23.30000000000016         0.30259308651366734
23.32000000000017         0.3344784688274659
23.340000000000167        0.3743559369745774
23.360000000000174        0.42208194991755027
23.38000000000018         0.47331261790498813
23.400000000000176        0.5187369125247959
23.42000000000017         0.5516181130154557
23.440000000000165        0.5691682843477451
23.460000000000164        0.5742948167645184
23.480000000000175        0.5692145154787597
23.50000000000017         0.5517076917819725
23.520000000000174        0.5188669710097649
23.540000000000184        0.4734770683948626
23.560000000000183        0.42227445256576196
23.580000000000183        0.3745734292912047
23.600000000000186        0.3347209555250934
23.620000000000186        0.30286218950213395
23.640000000000192        0.27783517769549926
23.66000000000019         0.25839531464996596
23.680000000000195        0.2435176008820685
23.700000000000202        0.23242466439055723
23.7200000000002          0.22455311822467955
23.7400000000002          0.2195151140621963
23.760000000000204        0.21706856308484995
23.78000000000021         0.2170966625264503
23.80000000000021         0.21960047112892003
23.820000000000213        0.22469724995699825
23.84000000000022         0.23263051246302213
23.860000000000216        0.24378955839144817
23.88000000000021         0.25873952348290036
23.90000000000022         0.27825997079610887
23.920000000000222        0.3033787306542447
23.94000000000022         0.3353439404154486
23.960000000000218        0.375321306241997
23.980000000000224        0.4231673024129688
24.000000000000234        0.47452822495995345
24.020000000000227        0.5200705985552065
24.040000000000223        0.5531021732148866
24.060000000000226        0.570638635235826
24.080000000000222        0.5757802797962931
24.10000000000023         0.5706874216545622
24.120000000000232        0.5531367255314186
24.140000000000235        0.5202122995027599
24.160000000000245        0.4747071657837279
24.18000000000024         0.4233757131823182
24.200000000000248        0.37555556493596565
24.220000000000244        0.33560423387619365
24.24000000000025         0.30366702623807124
24.260000000000257        0.27857892905392034
24.280000000000257        0.25909211401380183
24.30000000000026         0.24418113992361057
24.320000000000267        0.23306167973762068
24.34000000000026         0.22517171031784777
24.360000000000262        0.22012247556851205
24.380000000000262        0.21767108122650528
24.40000000000027         0.21770107443161602
24.42000000000026         0.22021301176471428
24.440000000000275        0.22532450439484558
24.460000000000285        0.23327975640289528
24.48000000000028         0.2444691551140749
24.500000000000284        0.2594594069325194
24.520000000000277        0.27903224002674454
24.54000000000028         0.3042183456664745
24.560000000000283        0.33626935568665844
24.580000000000283        0.3762890267212922
24.600000000000286        0.4242408361874312
24.620000000000285        0.47583592092287125
24.640000000000292        0.5216316920058524
24.660000000000284        0.5546194349257323
24.680000000000284        0.5722050142008611
24.700000000000287        0.5773613538973794
24.72000000000029         0.5722539946470795
24.740000000000286        0.5546538162523181
24.760000000000296        0.5216387856948888
24.780000000000303        0.4760102022453118
24.800000000000303        0.42454237077825796
24.820000000000302        0.3765967911091209
24.84000000000031         0.3365413999395983
24.860000000000312        0.30451522647904844
24.88000000000031         0.2793697429082589
24.900000000000308        0.25983491494623046
24.920000000000318        0.2448840392349716
24.940000000000328        0.23373708783703287
24.960000000000317        0.2258281492953357
24.980000000000324        0.22076742082549575
25.00000000000033         0.21831136527235398
25.020000000000326        0.21834324098994634
25.04000000000033         0.22086364303511738
25.06000000000033         0.22599054974471663
25.080000000000336        0.23396889061744325
25.100000000000342        0.24519019524170402
25.120000000000342        0.26022520039589936
25.140000000000338        0.27985153799442414
25.16000000000034         0.3051014031510971
25.18000000000034         0.33722254215843606
25.20000000000034         0.37738150260096387
25.22000000000034         0.4254691134525455
25.24000000000034         0.47721153135121197
25.26000000000035         0.5231400937618326
25.28000000000034         0.5562250838149833
25.300000000000338        0.5738640965291606
25.320000000000338        0.5790372736320538
25.340000000000337        0.5739159240677721
25.36000000000034         0.5562649575625568
25.380000000000347        0.5231551788449541
25.400000000000354        0.4774025465692952
25.42000000000036         0.42569445238183234
25.440000000000357        0.37763834608581304
25.46000000000036         0.3375108493852626
25.480000000000363        0.30542281628886225
25.500000000000366        0.2802085709229852
25.520000000000373        0.2606208376681052
25.540000000000372        0.24562994552574063
25.560000000000386        0.23445364001998187
25.580000000000382        0.22652440940262708
25.600000000000378        0.22145133554135327
25.620000000000378        0.21899018602255305
25.64000000000038         0.21902390190627682
25.660000000000384        0.22155311110551293
25.680000000000383        0.22669717287242427
25.700000000000387        0.23470036271395336
25.720000000000397        0.24595586342535714
25.740000000000393        0.26103333146884383
25.760000000000396        0.280717763166926
25.780000000000403        0.3060423253234348
25.800000000000402        0.33825859931390184
25.8200000000004          0.37853678580735367
25.8400000000004          0.4267677464546625
25.8600000000004          0.47866573035566096
25.880000000000393        0.5247345647984107
25.900000000000396        0.5579223379013489
25.920000000000393        0.5756179585736062
25.94000000000039         0.5808092874220396
25.96000000000039         0.5756747951744958
25.9800000000004          0.5580346305153601
26.0000000000004          0.5248980050037919
26.02000000000041         0.4788725289909592
26.040000000000425        0.4270102380796557
26.060000000000418        0.378811510258658
26.080000000000418        0.3385656954907405
26.100000000000417        0.30638379975060265
26.120000000000424        0.2810964692597503
26.14000000000043         0.2614525416237884
26.160000000000426        0.24641915434159278
26.18000000000043         0.23521164993118812
26.20000000000044         0.2272608059620332
26.22000000000043         0.22217398619128798
26.24000000000043         0.21970768291033396
26.260000000000435        0.21974353984403072
26.280000000000435        0.222282275628303
26.30000000000044         0.22744270819198373
26.320000000000448        0.2354713571094264
26.340000000000444        0.24676213541323644
26.360000000000458        0.261886530695904
26.380000000000454        0.28163206075133695
26.400000000000453        0.30703521454402716
26.42000000000046         0.33935161346444453
26.440000000000456        0.3797553036109948
26.460000000000452        0.4281371776267317
26.48000000000046         0.4801989394224051
26.500000000000455        0.5262794137044017
26.52000000000046         0.5596475035418801
26.540000000000457        0.5774654494042222
26.560000000000453        0.5826759445965976
26.580000000000453        0.5775254828513885
26.60000000000045         0.5598284683811834
26.62000000000046         0.526586114215462
26.640000000000462        0.4804151420577886
26.66000000000046         0.428391144595518
26.680000000000476        0.38004353165240035
26.700000000000475        0.33967421860595376
26.720000000000475        0.3073942399262952
26.740000000000478        0.2820304468120437
26.760000000000485        0.262325257907366
26.780000000000484        0.2472475176131042
26.800000000000487        0.23600786657175957
26.820000000000498        0.2280348416627792
26.840000000000494        0.2229350542440124
26.860000000000497        0.22046280344627678
26.880000000000496        0.22050038164006106
26.900000000000496        0.2230485311987262
26.920000000000503        0.22822648376598725
26.9400000000005          0.23628159421571981
26.96000000000051         0.24760909853263857
26.980000000000512        0.26278239712559864
27.000000000000508        0.28259164144898963
27.02000000000051         0.30807678900519436
27.04000000000051         0.3405242858811793
27.06000000000051         0.38109837743698327
27.080000000000506        0.42966155372090375
27.100000000000513        0.48179883448566735
27.12000000000051         0.5280397256175251
27.1400000000005          0.5615214921315416
27.16000000000051         0.5794021037548854
27.180000000000504        0.5846322400730805
27.200000000000497        0.5794653132851423
27.22000000000051         0.5617090491103532
27.24000000000051         0.528356173372987
27.260000000000524        0.4820329197680815
27.280000000000527        0.42983939826119044
27.300000000000544        0.3813356209495731
27.320000000000537        0.34086347469710176
27.34000000000054         0.3084603500740355
27.36000000000054         0.2830092497693796
27.380000000000543        0.2632431676757217
27.40000000000055         0.24811874795034822
27.420000000000545        0.2368447790329494
27.44000000000055         0.2288478921968523
27.46000000000055         0.22373341063464314
27.48000000000055         0.22125485639402293
27.50000000000055         0.22129415617555104
27.520000000000554        0.2238520764954017
27.540000000000553        0.22904828057897642
27.560000000000564        0.2371309992515692
27.580000000000563        0.24849465209620572
27.60000000000057         0.26371886137151224
27.620000000000573        0.28359637244073693
27.64000000000057         0.30917451508992433
27.660000000000572        0.3417252014212
27.680000000000565        0.3824367654652111
27.700000000000568        0.4311652566702508
27.72000000000056         0.4834814278772948
27.74000000000056         0.5298830026094983
27.76000000000056         0.563482599296917
27.780000000000566        0.5814275274933145
27.800000000000566        0.5866771615707341
27.820000000000558        0.5814919668878092
27.84000000000056         0.5636725654763667
27.860000000000564        0.5300660803976245
27.880000000000575        0.4837143786775904
27.900000000000574        0.43144037963865095
27.92000000000058         0.3827503846782609
27.94000000000059         0.34207734010506363
27.960000000000594        0.3095672303121641
27.980000000000594        0.2840327300769589
28.000000000000597        0.26420245402126924
28.0200000000006          0.24902943745450495
28.0400000000006          0.23771973082775016
28.060000000000603        0.2296979838773061
28.080000000000613        0.22456816488331718
28.10000000000061         0.2220829756605711
28.12000000000061         0.22212397976581422
28.140000000000615        0.22469143599881009
28.160000000000615        0.22990607046049685
28.18000000000061         0.23801682776344174
28.200000000000614        0.24942186506868277
28.220000000000613        0.26469912823694486
28.240000000000627        0.284645837213487
28.260000000000623        0.3103131271354541
28.280000000000626        0.3429775450795252
28.30000000000063         0.3838318390917984
28.320000000000626        0.4327320360845204
28.34000000000062         0.4852343344354903
28.36000000000062         0.5318036699961481
28.380000000000614        0.5655266408806925
28.40000000000061         0.583539412303604
28.420000000000616        0.5888102850392612
28.440000000000612        0.5836064527497421
28.46000000000062         0.5656588719670219
28.48000000000061         0.5319965084711038
28.500000000000625        0.4854795549679462
28.520000000000632        0.43302099034908065
28.540000000000642        0.3841604854319281
28.56000000000065         0.34334604060274965
28.580000000000645        0.3107237529532386
28.60000000000065         0.2851018588724534
28.620000000000648        0.26520433651440667
28.640000000000658        0.24998041474155552
28.660000000000654        0.23863325865373736
28.68000000000065         0.2305864541125523
28.70000000000066         0.22544002382610542
28.72000000000067         0.2229473696612258
28.740000000000673        0.22298959953004624
28.76000000000067         0.22556749325896222
28.780000000000665        0.230801566250174
28.800000000000683        0.23894186511637402
28.82000000000067         0.2503880389122146
28.840000000000682        0.26572019903733474
28.860000000000685        0.28573855350406074
28.880000000000685        0.31149817984837275
28.900000000000684        0.3442804245645987
28.920000000000684        0.3852826139178512
28.94000000000068         0.43436079700117575
28.960000000000676        0.4870621582880388
28.98000000000067         0.5339375858180219
29.000000000000668        0.5677159679093551
29.020000000000667        0.5857356042667937
29.04000000000066         0.5910277427404739
29.060000000000677        0.5858048984925517
29.08000000000067         0.5677895737424868
29.100000000000676        0.5340015402105094
29.120000000000683        0.48731253117670104
29.140000000000686        0.43466252971561525
29.160000000000696        0.3856254931445702
29.180000000000703        0.3446647252035783
29.200000000000706        0.3119263774016573
29.220000000000706        0.28621486838634225
29.24000000000071         0.2662494109131798
29.260000000000716        0.2509726297050443
29.280000000000715        0.23958613839286494
29.300000000000715        0.23151079208169248
29.320000000000725        0.22634773939350705
29.340000000000728        0.22384785666052184
29.360000000000724        0.2238918294124682
29.38000000000073         0.22648048232505036
29.40000000000073         0.23173483475118845
29.420000000000734        0.2399059192422471
29.440000000000726        0.25139494313504485
29.46000000000073         0.2667842791564518
29.480000000000736        0.28687725741200937
29.500000000000746        0.31272664804994543
29.520000000000735        0.3456111478330302
29.540000000000738        0.3867275737024974
29.560000000000738        0.43596721436080377
29.580000000000727        0.4889606397808603
29.600000000000723        0.5360175832717196
29.62000000000072         0.5699286553714655
29.64000000000072         0.5880206954389474
29.66000000000072         0.5933345957299805
29.680000000000724        0.5880903969600149
29.700000000000724        0.570002503966386
29.720000000000727        0.5360820631963965
29.740000000000734        0.48921310103845056
29.760000000000744        0.4363647149382343
29.780000000000747        0.38707844480702625
29.800000000000757        0.34600676745532455
29.82000000000077         0.313169201240761
29.840000000000764        0.2873707451998032
29.860000000000763        0.2673333503945017
29.88000000000077         0.2520020618936393
29.900000000000766        0.24057545164541458
29.920000000000773        0.23247216428589085
29.94000000000078         0.22729182978236126
29.96000000000078         0.2247843844345388
29.980000000000786        0.22483007693605145
30.00000000000078         0.2274297656840238
30.02000000000079         0.23270498531620146
30.040000000000784        0.2409094133244521
30.06000000000079         0.2524432763196252
30.080000000000787        0.26789185665334964
30.10000000000079         0.2880602814822989
30.1200000000008          0.31400824257539234
30.140000000000796        0.3470195720833141
30.160000000000792        0.38829524213633415
30.180000000000792        0.4377266818630135
30.200000000000784        0.4909286097406908
30.220000000000777        0.5381738476762306
30.240000000000776        0.5722228791363883
30.26000000000078         0.5903906898446473
30.280000000000776        0.5957282307499326
30.300000000000775        0.5904637796494545
30.320000000000782        0.5723687688494278
30.34000000000079         0.5383867865020715
30.360000000000788        0.4911994540999766
30.38000000000081         0.4380469159342454
30.40000000000081         0.38866115951245084
30.42000000000081         0.34743152312436226
30.440000000000826        0.3144687153367377
30.46000000000082         0.2885727360481491
30.48000000000082         0.26846028712646974
30.50000000000082         0.25307214473977646
30.52000000000083         0.24160367735518384
30.540000000000827        0.23347120958396214
30.560000000000823        0.2282727755429506
30.580000000000833        0.22575732187671732
30.600000000000836        0.2258048028091579
30.620000000000832        0.228416146973803
30.640000000000835        0.23371328696755264
30.66000000000084         0.2419493720903607
30.680000000000838        0.2535288200851935
30.70000000000084         0.2690383188407422
30.720000000000844        0.28928632962669
30.740000000000844        0.315336940448206
30.760000000000854        0.3484793477905292
30.780000000000847        0.3899196623691199
30.800000000000846        0.4395494584623274
30.820000000000842        0.49296703406362485
30.84000000000084         0.5404069803358121
30.86000000000083         0.5745332345428708
30.88000000000083         0.5928436750139282
30.900000000000833        0.5982056267352591
30.92000000000083         0.5929195357735402
30.940000000000843        0.5747467768006992
30.96000000000084         0.5406234476767491
30.98000000000085         0.49324290332748
31.000000000000856        0.4398770730987678
31.020000000000866        0.39029566779536495
31.04000000000087         0.3489040403259638
31.060000000000873        0.3158127231003993
31.080000000000886        0.28981663370582905
31.100000000000882        0.2696271310541699
31.12000000000088         0.254180600876893
31.14000000000088         0.24266749484967373
31.160000000000885        0.234505639681797
31.180000000000884        0.22928909021988297
31.200000000000887        0.22676580932545595
31.220000000000894        0.22681517201783727
31.240000000000897        0.22943816016842494
31.260000000000897        0.2347574225590198
31.280000000000896        0.24302719488659077
31.300000000000903        0.2546536203080364
31.320000000000903        0.2702258859701747
31.34000000000091         0.2905558962751701
31.360000000000916        0.316712278996308
31.38000000000091         0.3499897582812923
31.4000000000009          0.3915997386683126
31.420000000000897        0.44152607226906454
31.440000000000904        0.4950683974259698
31.460000000000896        0.5425762957653867
31.480000000000903        0.5769898853704599
31.500000000000888        0.5953823434606551
31.520000000000888        0.6007701384455337
31.540000000000887        0.5954628259775772
31.560000000000894        0.5772131908833381
31.580000000000886        0.5429459252549304
31.600000000000904        0.4953667812968736
31.62000000000091         0.44177919253887127
31.640000000000917        0.3919933881458119
31.66000000000093         0.3504324923517913
31.680000000000938        0.3172135517285682
31.70000000000093         0.29110574435871855
31.72000000000093         0.27083431534170316
31.740000000000933        0.2553272013202167
31.76000000000094         0.24377155337274492
31.780000000000946        0.23557840026414337
31.800000000000946        0.2303423611263856
31.820000000000945        0.22781034104515843
31.840000000000952        0.22786121685472172
31.86000000000095         0.23049599408653143
31.880000000000948        0.23583786986205693
31.900000000000947        0.2441421982958194
31.920000000000954        0.2558169026138303
31.940000000000946        0.2714537522413058
31.96000000000096         0.2918674003802585
31.980000000000967        0.31814014443330524
32.00000000000096         0.35157779445715776
32.02000000000096         0.39340346698162104
32.040000000000944        0.44347338640552536
32.06000000000095         0.4972449738980345
32.080000000000936        0.5449596943473392
32.10000000000094         0.5795253657608451
32.12000000000093         0.5980011083659938
32.140000000000924        0.603413821909663
32.16000000000093         0.5980818503006347
32.18000000000094         0.5797490737351003
32.20000000000094         0.5453302308727219
32.22000000000094         0.49754464308302165
32.240000000000954        0.4438228437064617
32.26000000000096         0.3938047475842063
32.28000000000096         0.3520313177393247
32.30000000000098         0.3186486098593886
32.320000000000974        0.29243455491648035
32.34000000000097         0.27208139641579165
32.36000000000097         0.25651239820574606
32.380000000000976        0.24491115328479662
32.40000000000098         0.23668615724368416
32.42000000000098         0.23143032157712248
32.440000000000985        0.22888949320618163
32.46000000000098         0.2289420548320791
32.480000000000985        0.2315890481026076
32.500000000000995        0.23695320824050867
32.52000000000099         0.24529251245586603
32.540000000000994        0.25701625665125927
32.560000000001004        0.27271932714253594
32.58000000000101         0.29322231692012707
32.60000000000099         0.3196072285335614
32.62000000000099         0.3531882812450496
32.640000000000995        0.3951942833821967
32.66000000000099         0.44548155858214966
32.68000000000098         0.499489268081697
32.70000000000097         0.5474173772576519
32.720000000000965        0.5821402356699876
32.74000000000096         0.6007024726996952
32.76000000000096         0.606141731161201
32.78000000000095         0.6007857306811104
32.80000000000098         0.5823027251655514
32.82000000000097         0.5476549057997558
32.84000000000098         0.49979284764340914
32.860000000000994        0.44584276402877543
32.880000000001           0.3956094296856356
32.90000000000101         0.35365792249223477
32.920000000001004        0.32013423026149723
32.94000000000101         0.29381059484964384
32.96000000000101         0.27337332214428256
32.980000000001006        0.25774081044353264
33.000000000001           0.24609295059934141
33.02000000000101         0.2378355587658199
33.04000000000101         0.23255975877906424
33.06000000000102         0.23001049473729138
33.080000000001036        0.23006492986888227
33.10000000000102         0.23272465278352908
33.12000000000102         0.23811397210552585
33.140000000001024        0.2464905778917376
33.16000000000102         0.25826623499820905
33.18000000000102         0.27403860325245516
33.20000000000102         0.29463210380855925
33.22000000000102         0.32113379804693004
33.24000000000101         0.3548640843046589
33.26000000000103         0.3970576975656362
33.280000000001024        0.4475710796257859
33.30000000000101         0.5018244379959564
33.320000000001016        0.5499746222781025
33.340000000001           0.5849276026880496
33.360000000000994        0.6035144607863484
33.380000000001004        0.6089811449070021
33.40000000000099         0.6036003616581228
33.42000000000099         0.5850323864403775
33.440000000001014        0.5502249530364539
33.46000000000102         0.5021442069756147
33.48000000000102         0.4479503512300808
33.50000000000103         0.39749230485315956
33.52000000000103         0.35535495442485465
33.540000000001044        0.3216843093838321
33.56000000000105         0.2952466071846503
33.58000000000105         0.2747218943568031
33.600000000001046        0.25902575882305323
33.62000000000106         0.24732899676501033
33.640000000001045        0.2390375781010148
33.66000000000105         0.23374080049124382
33.68000000000106         0.23118225538010503
33.700000000001054        0.23123924925209768
33.72000000000108         0.23391285445335644
33.74000000000105         0.23932800842378768
33.76000000000106         0.24774366215113638
33.78000000000106         0.25957357863393243
33.80000000000107         0.2754183120084947
33.82000000000106         0.296106277751464
33.84000000000106         0.32272981457780975
33.860000000001065        0.3566157659055456
33.88000000000106         0.39893629392310687
33.90000000000107         0.44966060366154
33.92000000000105         0.50426964600619
33.94000000000104         0.5527878749297416
33.960000000001024        0.5877707706826992
33.98000000000103         0.6064517070283233
34.00000000000102         0.6119473019376489
34.020000000001026        0.6065400455226918
34.040000000001044        0.5878801787117929
34.06000000000105         0.552904183119628
34.08000000000106         0.504594060344682
34.10000000000105         0.45014678137017483
34.12000000000106         0.39945611051772006
34.14000000000107         0.35712650284211267
34.16000000000107         0.3232971731773796
34.18000000000107         0.2967488533508375
34.200000000001076        0.27613531959015297
34.22000000000109         0.26036846827486193
34.24000000000108         0.24862182740438535
34.26000000000108         0.2402959815157134
34.280000000001074        0.23497822918626884
34.30000000000109         0.23241094480362706
34.32000000000109         0.2324709098940002
34.340000000001076        0.2351592708466926
34.36000000000109         0.24060163333387452
34.38000000000109         0.24905827198439393
34.4000000000011          0.2609450407874878
34.42000000000109         0.2768680340082858
34.44000000000109         0.2976531251173823
34.46000000000109         0.32439658515632025
34.48000000000109         0.3584240193425099
34.5000000000011          0.40097646794318187
34.5200000000011          0.45194707843723
34.54000000000109         0.5068248560788741
34.56000000000108         0.5555874717616243
34.58000000000109         0.5907503877856852
34.60000000000107         0.6095309276814463
34.62000000000107         0.6150575122755914
34.640000000001066        0.6096229128577358
34.66000000000107         0.5908670390216422
34.68000000000108         0.5557146344069781
34.70000000000109         0.5071699393032816
34.72000000000111         0.4523573163513129
34.74000000000111         0.40144817555223283
34.76000000000111         0.3589586985611728
34.78000000000111         0.3249981476805207
34.800000000001106        0.29832641941750143
34.820000000001116        0.2776183327604959
34.84000000000112         0.2617802759971852
34.86000000000111         0.24998162133988563
34.880000000001125        0.24161995861682045
34.90000000000113         0.23628052159525803
34.92000000000112         0.23370438253460724
34.94000000000113         0.23376774227744462
34.960000000001116        0.23647183616915793
34.980000000001134        0.24194404306692122