% Model:              Untitled.mph
% Version:            COMSOL 5.6.0.280
% Date:               Sep 28 2021, 20:53
% Dimension:          1
% Nodes:              1015
% Expressions:        1
% Description:        线图
% cln1x                   Height
49.2                      0.3320386261200309
49.21999999999993         0.3316102459955681
49.239999999999924        0.3363461483336158
49.25999999999991         0.3466243566436039
49.27999999999991         0.36315444181113904
49.2999999999999          0.3870054393382339
49.319999999999894        0.4195681718474824
49.33999999999989         0.46221034035506625
49.35999999999989         0.5148953864485948
49.379999999999875        0.5728135919611086
49.399999999999885        0.6249985257451185
49.41999999999987         0.6629114808503289
49.439999999999856        0.6831994256966105
49.459999999999845        0.6890272474796966
49.47999999999983         0.6827755633575299
49.49999999999984         0.6619215876253548
49.519999999999825        0.6231871993865434
49.53999999999982         0.569838528023152
49.55999999999982         0.5103796858105828
49.57999999999979         0.4558247755635328
49.5999999999998          0.41105135971998136
49.61999999999979         0.3761410770984347
49.63999999999978         0.349742113396337
49.65999999999978         0.330454641423944
49.67999999999978         0.3171800989469084
49.69999999999978         0.3091612469552159
49.71999999999976         0.30595449058983004
49.73999999999975         0.30740274755298774
49.759999999999735        0.313622199634988
49.77999999999974         0.3250133339456253
49.799999999999734        0.342286820404622
49.819999999999716        0.36649029792003107
49.83999999999971         0.3989710085383445
49.85999999999971         0.44104031166022506
49.8799999999997          0.49263392886417423
49.89999999999969         0.5490521185320194
49.91999999999969         0.599673836292986
49.939999999999685        0.6363521997875391
49.959999999999695        0.6559428201227142
49.97999999999967         0.6616069888449356
49.99999999999967         0.65570394411619
50.01999999999966         0.6358190971639497
50.03999999999965         0.5987384528108358
50.05999999999965         0.547573517029183
50.07999999999963         0.4904544269241259
50.09999999999962         0.4380273165703218
50.11999999999962         0.3950260974791107
50.13999999999961         0.36153825145229485
50.159999999999606        0.3362632381819945
50.1799999999996          0.3178543675061613
50.19999999999959         0.3052561333903664
50.21999999999959         0.29774263338235024
50.239999999999576        0.29489080802425105
50.259999999999586        0.29655358499075046
50.27999999999955         0.3028512408806355
50.29999999999957         0.31417422082699226
50.31999999999955         0.33121652666552476
50.33999999999955         0.3549974983591257
50.359999999999545        0.3868258073802645
50.379999999999534        0.4279717503044683
50.39999999999952         0.47835948028895264
50.41999999999952         0.5333870985743977
50.43999999999951         0.5826933053312799
50.459999999999496        0.6183810786260251
50.479999999999514        0.637419793578446
50.499999999999496        0.6429275888711461
50.51999999999951         0.6372208109457782
50.53999999999949         0.6178810145873469
50.55999999999949         0.5819576831515053
50.579999999999465        0.532260626833528
50.59999999999947         0.47674240758997644
50.61999999999946         0.4257779371592791
50.63999999999944         0.38398914625257197
50.659999999999435        0.35146570163057267
50.67999999999942         0.32694353198520365
50.699999999999406        0.30911359337942307
50.71999999999941         0.2969505372631285
50.73999999999941         0.28975008272039227
50.759999999999394        0.2871029860713886
50.77999999999939         0.2888689778029534
50.799999999999386        0.2951667640096495
50.81999999999938         0.30638319627209587
50.83999999999938         0.323200229846388
50.859999999999374        0.3466103738833282
50.879999999999356        0.3778955771824437
50.89999999999936         0.4182959138985567
50.91999999999935         0.46772936535610243
50.939999999999344        0.5216745111711695
50.959999999999354        0.5699731459265157
50.97999999999935         0.6049110558094807
50.99999999999935         0.623537467545715
51.01999999999934         0.6289281807813469
51.03999999999933         0.6233623420824167
51.05999999999933         0.6044716468562871
51.07999999999932         0.5692165959721887
51.09999999999929         0.5207518968804409
51.119999999999294        0.46643604771197894
51.139999999999276        0.41657187436011434
51.15999999999928         0.37569277689495956
51.17999999999926         0.3438892653679588
51.19999999999925         0.3199248722441939
51.219999999999224        0.302519042526878
51.23999999999922         0.2906691305680034
51.25999999999921         0.28368699355486904
51.27999999999921         0.2811735277523641
51.29999999999921         0.2829932064192873
51.3199999999992          0.28926437008741224
51.33999999999919         0.300368297997869
51.35999999999918         0.3169744391042677
51.37999999999918         0.34006180805808756
51.399999999999174        0.3708855396196313
51.41999999999919         0.4106634011388247
51.43999999999917         0.4593099422405264
51.45999999999917         0.5123715077455663
51.479999999999166        0.5598557316056433
51.49999999999916         0.594191780846445
51.51999999999916         0.6124898254735118
51.53999999999914         0.6177872490032829
51.55999999999914         0.6123311614171455
51.57999999999914         0.593793547164185
51.59999999999913         0.5591782801836419
51.61999999999912         0.5115765143404506
51.639999999999105        0.4583118324542671
51.65999999999908         0.40923697880129883
51.679999999999076        0.36908239534997445
51.69999999999906         0.3378505071232041
51.71999999999908         0.3143268423412845
51.73999999999906         0.29725355792199487
51.75999999999906         0.28564605016947053
51.779999999999056        0.2788289267876353
51.799999999999045        0.2764109973327506
51.819999999999034        0.2782602883456911
51.83999999999902         0.2844945585265548
51.85999999999902         0.2954902785306994
51.879999999999015        0.31190748292719417
51.899999999999           0.33471564217986993
51.919999999999           0.36513644386878386
51.939999999999           0.4043829873777603
51.959999999998985        0.452362984296822
51.97999999999898         0.5046808126572097
51.99999999999898         0.551483521387431
52.019999999998994        0.5853180158550118
52.03999999999898         0.6033436394664576
52.05999999999898         0.6085637136967524
52.079999999998975        0.6031976614968348
52.099999999998964        0.584951004396339
52.11999999999895         0.5508647928716113
52.139999999998935        0.5039815553794275
52.15999999999893         0.45151152426037866
52.17999999999892         0.403229582960047
52.199999999998894        0.3636152701983562
52.21999999999888         0.33285832814069877
52.23999999999888         0.3097004286687853
52.25999999999886         0.2929025276288456
52.27999999999887         0.28149494948168785
52.29999999999886         0.27481283838174536
52.31999999999887         0.27247152398058516
52.33999999999885         0.27434193053805406
52.35999999999885         0.2805412778138157
52.37999999999884         0.2914419897526617
52.39999999999883         0.307696233285038
52.41999999999882         0.3302614315274176
52.43999999999881         0.3603669812723068
52.45999999999881         0.39920103776121013
52.4799999999988          0.44655679276141846
52.499999999998806        0.4982476864130089
52.51999999999881         0.5444770196041961
52.53999999999882         0.5778901828906197
52.55999999999881         0.5956872787571788
52.57999999999881         0.6008424341402665
52.59999999999881         0.5955514187184606
52.61999999999878         0.5775478508292479
52.639999999998786        0.5439044523574765
52.65999999999877         0.4976232275699312
52.67999999999874         0.44581981454979946
52.69999999999873         0.3981506339383355
52.71999999999871         0.3590662179956188
52.739999999998716        0.3286845141658891
52.75999999999871         0.3058335372095719
52.7799999999987          0.2892665166372129
52.7999999999987          0.27802627305884925
52.81999999999868         0.2714567669547889
52.839999999998675        0.26917877776169624
52.859999999998664        0.271065642071608
52.87999999999867         0.27723410930430126
52.89999999999865         0.2880531944739237
52.91999999999867         0.30416846812729886
52.93999999999864         0.3265272645360496
52.959999999998644        0.35634569833713947
52.97999999999864         0.3947985912105749
52.999999999998614        0.44176423191253106
53.019999999998646        0.49284116763235414
53.03999999999865         0.5385869791229114
53.05999999999862         0.571645026690433
53.07999999999864         0.5892495249135584
53.099999999998644        0.5943498230873873
53.119999999998626        0.5891215094906441
53.13999999999862         0.5713217679446986
53.15999999999861         0.5380502631410441
53.1799999999986          0.49227498996467095
53.199999999998575        0.4410322052951861
53.219999999998564        0.39387834055258375
53.23999999999854         0.35521926863020276
53.25999999999853         0.3251772454762293
53.27999999999852         0.30257731781039965
53.29999999999852         0.2862042066247361
53.31999999999851         0.2751028230150127
53.339999999998504        0.26862570322643
53.35999999999849         0.26639816250713116
53.37999999999848         0.2682955031801795
53.39999999999848         0.27443399657139
53.419999999998474        0.28517968308189673
53.43999999999846         0.3011724539241302
53.459999999998466        0.32335101399925725
53.47999999999847         0.3529201355888825
53.49999999999845         0.3910432936000984
53.519999999998454        0.437598380096136
53.539999999998464        0.4882161281556048
53.55999999999846         0.5335519218854515
53.57999999999846         0.566306012395306
53.599999999998474        0.5837461535049486
53.61999999999846         0.5887997460732544
53.63999999999846         0.5836247536777491
53.65999999999847         0.5659985614861812
53.67999999999844         0.5330442751288059
53.69999999999843         0.48770092319353087
53.719999999998386        0.43693717021843864
53.73999999999839         0.3902235964265905
53.75999999999837         0.3519275991213487
53.77999999999837         0.3221709066233518
53.799999999998334        0.2997895479107351
53.819999999998345        0.28357739949773614
53.83999999999832         0.2725949945405802
53.85999999999833         0.2661945450624296
53.879999999998326        0.2640073947015677
53.8999999999983          0.2659104620130437
53.9199999999983          0.2720195237842404
53.9399999999983          0.28269796334939523
53.95999999999828         0.2985806659980783
53.97999999999828         0.3205987753796256
53.99999999999827         0.34994716931835895
54.01999999999827         0.3877794586567957
54.03999999999829         0.43397342846616976
54.05999999999828         0.4841928029928451
54.07999999999829         0.5290374647218797
54.09999999999829         0.5615952393220045
54.119999999998306        0.5789547927548613
54.139999999998295        0.5839686392667689
54.15999999999829         0.5788405680594053
54.17999999999829         0.5613657225843157
54.19999999999827         0.5286876660463734
54.21999999999824         0.483720221284962
54.23999999999822         0.43337308856548923
54.2599999999982          0.3870421750318082
54.27999999999818         0.3490614557276171
54.29999999999818         0.31955221838328096
54.31999999999817         0.2973600520932549
54.33999999999815         0.2812887157120948
54.359999999998145        0.2704048350363224
54.379999999998155        0.26407110227095604
54.39999999999813         0.26191712867728784
54.41999999999813         0.2638228729132713
54.43999999999812         0.2699036362977161
54.45999999999811         0.280520434594995
54.479999999998114        0.2963037302963129
54.499999999998096        0.3181780136016825
54.51999999999809         0.34732949517561407
54.539999999998095        0.38490318489142156
54.55999999999809         0.4307767907129581
54.57999999999809         0.4806428264415772
54.599999999998126        0.5251667057902217
54.61999999999813         0.5574888949480241
54.63999999999813         0.574720095408523
54.65999999999812         0.5796985854695339
54.67999999999811         0.5746110686047771
54.69999999999811         0.5572690326711742
54.71999999999809         0.5248342869830052
54.73999999999806         0.48019838158114075
54.75999999999804         0.4302190933546306
54.77999999999802         0.3842259625759122
54.799999999998           0.34652316581049947
54.819999999998           0.31723157642699135
54.839999999997985        0.2952052448606885
54.859999999997974        0.27925667510656554
54.87999999999797         0.2684593731365723
54.89999999999795         0.2621799558839404
54.91999999999795         0.2600534154550143
54.93999999999795         0.2619583309719418
54.95999999999793         0.2680103458340373
54.97999999999795         0.2785682823325841
54.99999999999792         0.2942585638712167
55.01999999999792         0.31599963418645277
55.03999999999791         0.34496985354436976
55.05999999999792         0.38230649562861024
55.0799999999979          0.42788735932110505
55.09999999999792         0.47743140815263363
55.11999999999795         0.5216637645476506
55.13999999999796         0.553772251498688
55.15999999999795         0.5708881249288591
55.17999999999795         0.5758339037079754
55.19999999999795         0.5707829308927772
55.219999999997945        0.5535608042773956
55.23999999999791         0.5213458706042745
55.25999999999789         0.47700952181067546
55.27999999999787         0.4273625900353918
55.299999999997844        0.3816744591257024
55.319999999997826        0.3442222925231039
55.33999999999783         0.31512657733971067
55.359999999997804        0.29324901429845956
55.3799999999978          0.27741000701584717
55.399999999997796        0.2666892713534944
55.41999999999778         0.2604577289976133
55.43999999999777         0.2583529122690009
55.45999999999777         0.26025519189674856
55.47999999999777         0.26627717916919913
55.499999999997755        0.27677812189221546
55.51999999999775         0.29237984204565626
55.53999999999775         0.313995167084052
55.55999999999773         0.34279518171135814
55.57999999999774         0.379910022478446
55.59999999999773         0.42521772015459147
55.619999999997745        0.47446211985589204
55.639999999997755        0.5184239978266597
55.65999999999777         0.5503346382516231
55.6799999999978          0.5673441131670907
55.699999999997765        0.5722598710809035
55.719999999997775        0.5672429245717125
55.73999999999777         0.5501317741400081
55.75999999999774         0.5181200554077108
55.77999999999772         0.4740604832035042
55.7999999999977          0.42472039832877656
55.81999999999766         0.3793136384452174
55.83999999999766         0.3420924527077343
55.85999999999764         0.31317697150528157
55.87999999999764         0.2914359499901992
55.899999999997625        0.27569707044208447
55.91999999999762         0.2650457602046476
55.9399999999976          0.25885689600254447
55.959999999997606        0.25677034863053244
55.979999999997595        0.2586673313754288
55.99999999999759         0.26466153687804117
56.01999999999758         0.2751052953412649
56.039999999997576        0.2906217943099766
56.05999999999757         0.31211694571010856
56.07999999999756         0.3407550173791936
56.09999999999758         0.37765947909831693
56.11999999999755         0.42270862828998323
56.13999999999757         0.4716696966350443
56.15999999999758         0.5153757630251324
56.17999999999758         0.5470991884439255
56.19999999999759         0.5640077465090721
56.2199999999976          0.5688947684829965
56.2399999999976          0.5639103890090023
56.25999999999758         0.5469620671206504
56.279999999997585        0.5152078175471844
56.29999999999754         0.4712825700112614
56.3199999999975          0.42223105437771663
56.33999999999749         0.3770888077949612
56.35999999999746         0.3400845653833945
56.379999999997445        0.3113381059547321
56.39999999999746         0.28972482216180284
56.419999999997444        0.2740792398882961
56.43999999999745         0.2634921458137366
56.45999999999743         0.257342114109999
56.47999999999742         0.25527119581019847
56.499999999997414        0.257161389523868
56.51999999999742         0.26312580552228926
56.5399999999974          0.2735169585023704
56.559999999997395        0.2889493603051175
56.57999999999739         0.3103268001879668
56.59999999999738         0.33880835072145504
56.619999999997376        0.37550997422293136
56.63999999999738         0.42031029616342797
56.6599999999974          0.4689991237333245
56.679999999997406        0.5124597905942626
56.69999999999743         0.5440038176037172
56.71999999999744         0.5608158079855188
56.73999999999744         0.5656753439977402
56.759999999997454        0.5607212122746599
56.77999999999741         0.543872080412309
56.79999999999741         0.5123001319531435
56.819999999997364        0.46862941101530103
56.83999999999734         0.4198490125505834
56.85999999999731         0.3749599066692988
56.87999999999729         0.33816326477980746
56.89999999999727         0.309578508067276
56.919999999997266        0.2880873802143941
56.93999999999725         0.27253095725219123
56.95999999999725         0.26200515268147057
56.97999999999725         0.2558920729254929
56.99999999999724         0.2538358476060246
57.01999999999723         0.2557192340913189
57.03999999999723         0.2616548079920242
57.05999999999722         0.27199319657017657
57.079999999997206        0.28734560636810796
57.0999999999972          0.3086064047825354
57.1199999999972          0.3369420918325222
57.13999999999719         0.37344886283724354
57.15999999999719         0.41801023316465385
57.17999999999721         0.46643768200929103
57.19999999999723         0.5096627687488774
57.219999999997256        0.5410345898312813
57.239999999997266        0.5577538887302184
57.25999999999726         0.5625870452043906
57.27999999999726         0.5576619510034527
57.29999999999725         0.5409080192479233
57.31999999999723         0.5095110029259483
57.33999999999719         0.4660797331916895
57.35999999999715         0.41748375670012444
57.379999999997125        0.3728605395941712
57.39999999999711         0.33632057470746507
57.41999999999709         0.30789099117278307
57.43999999999708         0.2865170888881245
57.45999999999707         0.2710462213739128
57.47999999999708         0.2605792154020164
57.49999999999706         0.2545015600481164
57.519999999997054        0.2524593696424183
57.53999999999705         0.25433612140237966
57.55999999999703         0.26024389158714933
57.579999999997035        0.27053151287496696
57.59999999999704         0.2858069899194286
57.61999999999701         0.3069600147622557
57.63999999999703         0.33512905226935824
57.659999999997           0.3714703256456107
57.679999999997015        0.41580187829550597
57.69999999999704         0.46397819312388966
57.71999999999706         0.506977419614855
57.73999999999709         0.5381844415087528
57.759999999997085        0.5548153793243389
57.779999999997095        0.5596236271582583
57.799999999997084        0.5547265936503941
57.819999999997066        0.5380640935998444
57.83999999999705         0.50683495036688
57.85999999999703         0.46363342941745134
57.87999999999698         0.41529202225850514
57.89999999999696         0.3709017074716769
57.91999999999693         0.3345306587832182
57.93999999999692         0.30627181533839504
57.9599999999969          0.28501032420820177
57.9799999999969          0.2696214578674909
57.99999999999689         0.2592107544871864
58.0199999999969          0.25316694560580544
58.03999999999688         0.25113804518361166
58.05999999999687         0.25300821379559224
58.079999999996865        0.25888904886366876
58.09999999999686         0.2691276887387113
58.11999999999686         0.2843290819371791
58.13999999999685         0.305378427865478
58.15999999999685         0.33340845858000717
58.17999999999683         0.36951253364483266
58.19999999999685         0.4136005243641382
58.21999999999686         0.46161520601861256
58.23999999999687         0.5043967004307821
58.25999999999689         0.5354444896690229
58.2799999999969          0.5519895812131648
58.299999999996906        0.5567732043068865
58.31999999999691         0.5519026353325036
58.3399999999969          0.5353275784747306
58.35999999999687         0.5042595192792986
58.37999999999685         0.4612787664829916
58.39999999999681         0.41318225730209707
58.41999999999679         0.36901605917150676
58.43999999999676         0.3328286714046884
58.459999999996754        0.30470828433416675
58.479999999996714        0.28355924818656886
58.49999999999673         0.2682489860437781
58.51999999999671         0.25789208460954416
58.53999999999671         0.2518803907526497
58.5599999999967          0.24986373563773107
58.579999999996694        0.25172691956297927
58.59999999999669         0.25758105483284766
58.61999999999667         0.2677716334697763
58.63999999999666         0.28290065794630503
58.659999999996664        0.3038489557712155
58.67999999999666         0.33174367244050573
58.69999999999666         0.3676727571082239
58.71999999999667         0.41154630399602726
58.73999999999668         0.45933125836698163
58.75999999999669         0.5018968714446251
58.77999999999672         0.5327907779759716
58.79999999999672         0.5492532145714091
58.81999999999676         0.5540132554683601
58.83999999999674         0.5491682452378481
58.85999999999673         0.532677555453481
58.879999999996706        0.5017651715917333
58.89999999999668         0.45899800172461325
58.919999999996634        0.41113870006336506
58.939999999996594        0.3671896571775494
58.959999999996576        0.33118018445398056
58.97999999999656         0.30319824830391484
58.999999999996554        0.28215474547490993
59.019999999996536        0.2669214084216548
59.03999999999652         0.2566143401467027
59.059999999996535        0.25063349492810255
59.07999999999652         0.2486283908754195
59.09999999999652         0.2504844385687722
59.1199999999965          0.2563122640528156
59.13999999999649         0.26645574758529733
59.15999999999649         0.2815140404620612
59.17999999999649         0.30236373186758414
59.19999999999647         0.3301265160014125
59.21999999999648         0.36588506914192676
59.239999999996485        0.4095497333411441
59.259999999996516        0.45710620300678173
59.27999999999654         0.4995897020338156
59.29999999999656         0.5302114509300657
59.319999999996575        0.5465938696697623
59.33999999999659         0.5513312344623257
59.35999999999657         0.5465112103361668
59.379999999996585        0.5301026133865276
59.39999999999653         0.4993416019540867
59.41999999999649         0.4567820851009686
59.43999999999646         0.4091533698151558
59.45999999999642         0.3654154153299198
59.479999999996394        0.32957890185498057
59.49999999999639         0.30173157861005845
59.519999999996365        0.28078961157044935
59.53999999999636         0.26563016703946907
59.55999999999636         0.25537518909463597
59.57999999999635         0.24942280737754016
59.59999999999634         0.24742898874898045
59.61999999999635         0.2492781590508597
59.63999999999632         0.2550804696558205
59.65999999999634         0.26517822970480226
59.67999999999632         0.28016782679339863
59.69999999999632         0.3009217664974325
59.719999999996304        0.328556460109356
59.739999999996314        0.36414945847963665
59.759999999996325        0.40761133859224
59.77999999999634         0.4549459680347615
59.79999999999638         0.49722990922887567
59.8199999999964          0.5277648449777715
59.83999999999641         0.5440125557683816
59.85999999999641         0.5487270246875795
59.87999999999642         0.5439312114253588
59.89999999999641         0.527602276870365
59.91999999999637         0.49698824083601545
59.93999999999633         0.4546304128387942
59.95999999999629         0.4072257358863456
59.97999999999626         0.36369291462537523
59.99999999999624         0.3280245020064622
60.01999999999622         0.3003080291643997
60.03999999999621         0.27946478013439824
60.0599999999962          0.26437720077633786
60.07999999999619         0.2541713711362576
60.099999999996186        0.24824905890443608
60.11999999999618         0.24626550798704805
60.139999999996164        0.2481081003095428
60.15999999999617         0.253885738085829
60.17999999999618         0.26393920403803106
60.19999999999615         0.2788622025149572
60.219999999996155        0.29952329701534436
60.239999999996144        0.3270338057579807
60.259999999996154        0.3624663111152733
60.27999999999616         0.40573160364729827
60.29999999999619         0.4528511175785723
60.319999999996234        0.4949414378048686
60.339999999996245        0.5253357907746266
60.35999999999626         0.5415081937533662
60.37999999999626         0.546201132896474
60.39999999999626         0.5414288153349481
60.41999999999627         0.5251771419911273
60.439999999996225        0.49470569615822446
60.459999999996185        0.45254357009154206
60.47999999999613         0.4053563130140085
60.4999999999961          0.3620225903288221
60.51999999999608         0.3265173553224832
60.53999999999606         0.2989279226785287
60.559999999996045        0.27818054027173733
60.57999999999605         0.2631627755154677
60.599999999996044        0.25300472142678676
60.619999999996026        0.24711090621259382
60.63999999999602         0.24513817982025732
60.659999999996           0.24697370172124983
60.679999999996           0.252728304693791
60.69999999999602         0.26273891100755226
60.71999999999599         0.27759741176130087
60.739999999996           0.2981685487314969
60.75999999999599         0.32555872779948447
60.77999999999599         0.3608357255035799
60.799999999996004        0.4039105381870593
60.81999999999602         0.45082165198975443
60.83999999999608         0.4927244723649399
60.85999999999609         0.5229827449997728
60.879999999996116        0.539082302665436
60.89999999999611         0.5437544613421663
60.9199999999961          0.539003982442016
60.93999999999608         0.5228277800848409
60.95999999999607         0.49249434912056356
60.97999999999602         0.45052179208613674
60.99999999999598         0.4035453130079897
61.019999999995946        0.36040467620425015
61.03999999999592         0.3250577041531181
61.05999999999591         0.29759148976838556
61.079999999995884        0.27693709698861485
61.09999999999588         0.2619870623415059
61.11999999999587         0.25187537144136446
61.139999999995865        0.24600923004284164
61.15999999999586         0.24404705011184372
61.17999999999585         0.24587653726195358
61.19999999999585         0.25160652430903485
61.21999999999585         0.2615771940696821
61.23999999999584         0.27637321084541017
61.25999999999584         0.29685716221571395
61.27999999999583         0.32413069275908757
61.29999999999584         0.3592569358412701
61.319999999995844        0.40214711072454795
61.33999999999587         0.44885636177045496
61.35999999999591         0.490577872689403
61.379999999995924        0.5207047590578477
61.39999999999594         0.5367341765103436
61.419999999995945        0.5413863822047189
61.43999999999595         0.5366576771164089
61.45999999999593         0.5204967047570861
61.479999999995904        0.4902329135624159
61.49999999999586         0.44856408714485435
61.51999999999582         0.4017918746925432
61.53999999999581         0.35883851471107975
61.55999999999577         0.3236450662606964
61.57999999999574         0.29629837983212093
61.599999999995745        0.27573419771042224
61.61999999999572         0.2608498836897235
61.63999999999572         0.25078320399338205
61.659999999995705        0.24494396583406877
61.679999999995694        0.2429920998808134
61.6999999999957          0.24481584553167118
61.71999999999568         0.2505236234068345
61.739999999995675        0.26045219135377407
61.75999999999567         0.2751898602418241
61.77999999999567         0.29558952927701404
61.79999999999567         0.3227502634714986
61.81999999999567         0.3577307278146504
61.839999999995676        0.400442376247814
61.85999999999571         0.4469564824865137
61.87999999999576         0.4885027866586818
61.899999999995785        0.518502766359847
61.91999999999581         0.5344644978386748
61.939999999995806        0.5390975036844087
61.959999999995794        0.5343899008982861
61.97999999999578         0.5182987359627548
61.99999999999575         0.4881641001685206
62.01999999999572         0.4466670644594289
62.039999999995665        0.4000974038772652
62.059999999995625        0.3573251292022195
62.07999999999561         0.32228013811706163
62.09999999999558         0.2950490494143052
62.119999999995585        0.2745721254138757
62.13999999999557         0.25975138709819734
62.159999999995556        0.24972825009158264
62.17999999999555         0.2439150401381428
62.199999999995555        0.24197316298998123
62.21999999999555         0.24379137565529038
62.23999999999553         0.24947770012577541
62.25999999999553         0.2593675522334969
62.279999999995525        0.2740457750432172
62.299999999995514        0.29436944139836196
62.31999999999551         0.3214167887650798