% Model:              Untitled.mph
% Version:            COMSOL 5.6.0.280
% Date:               Sep 28 2021, 21:03
% Dimension:          1
% Nodes:              994
% Expressions:        1
% Description:        线图
% cln2x                   Height
21.910000000000007        0.21637690513165078
21.920000000000027        0.2166056329918974
21.940000000000026        0.21893021157831277
21.960000000000033        0.22385037961982387
21.980000000000036        0.23160464808727804
22.000000000000036        0.24257675886853997
22.020000000000035        0.2573251902160827
22.040000000000042        0.27662082501090757
22.060000000000045        0.3014792492620575
22.080000000000037        0.3331314755854661
22.100000000000048        0.3727287862837728
22.120000000000054        0.4202505999484271
22.14000000000005         0.4712061327649916
22.160000000000046        0.5163916826012704
22.180000000000042        0.5491008534508806
22.200000000000042        0.5665570183034139
22.220000000000052        0.5716529902718681
22.240000000000048        0.5665933183432342
22.260000000000055        0.5492290369339117
22.28000000000007         0.5166090161985346
22.30000000000006         0.4712963177150641
22.32000000000006         0.4202282827261773
22.340000000000064        0.37276142428301035
22.360000000000067        0.333122328950205
22.38000000000007         0.3014217752724726
22.40000000000007         0.2765084118138056
22.42000000000007         0.2571507908531589
22.44000000000008         0.242334846227258
22.460000000000075        0.2312867614016628
22.48000000000008         0.22344571638098648
22.50000000000008         0.21842560449329507
22.52000000000009         0.21598522055328206
22.540000000000084        0.2160089020664978
22.560000000000088        0.21849713816009825
22.58000000000009         0.2235665965420099
22.600000000000097        0.23145955697550352
22.620000000000093        0.24256326331764397
22.640000000000096        0.2574395873584903
22.6600000000001          0.2768620548577767
22.6800000000001          0.3018583014279639
22.700000000000095        0.3336678937452829
22.720000000000102        0.37345063547271995
22.7400000000001          0.4210630854279369
22.76000000000011         0.47217111139834544
22.780000000000108        0.5174853364855039
22.800000000000107        0.5502857959096019
22.820000000000103        0.5677916438441108
22.84000000000011         0.5729040697400803
22.86000000000011         0.5678346413968391
22.88000000000011         0.550431646564973
22.900000000000112        0.5177398744602051
22.920000000000122        0.47232916410108194
22.94000000000012         0.42124151344064387
22.96000000000012         0.3736528239442568
22.98000000000013         0.3338935542504233
23.00000000000013         0.3021086526794908
23.02000000000013         0.2771390839211517
23.040000000000134        0.25774331012928403
23.06000000000014         0.24289882882831146
23.080000000000137        0.2318301658724058
23.10000000000014         0.22397531057649445
23.12000000000014         0.21894735199956672
23.140000000000146        0.21650460291262139
23.160000000000146        0.21653120042694995
23.180000000000152        0.2190276970608468
23.200000000000152        0.2241110912100738
23.220000000000162        0.23202272368174687
23.24000000000015         0.24315332628327768
23.260000000000154        0.2580655987017693
23.28000000000016         0.2775371146660647
23.30000000000016         0.30259308651363664
23.32000000000017         0.33447846882743154
23.340000000000167        0.37435593697453795
23.360000000000174        0.42208194991750714
23.38000000000018         0.47331261790493956
23.400000000000176        0.5187369125247439
23.42000000000017         0.5516181130153998
23.440000000000165        0.5691682843476872
23.460000000000164        0.5742948167644599
23.480000000000175        0.5692145154787022
23.50000000000017         0.5517076917819168
23.520000000000174        0.5188669710097128
23.540000000000184        0.473477068394817
23.560000000000183        0.42227445256571877
23.580000000000183        0.37457342929116605
23.600000000000186        0.33472095552505765
23.620000000000186        0.3028621895021033
23.640000000000192        0.27783517769547195
23.66000000000019         0.2583953146499401
23.680000000000195        0.2435176008820402
23.700000000000202        0.23242466439053264
23.7200000000002          0.22455311822465504
23.7400000000002          0.2195151140621752
23.760000000000204        0.21706856308482889
23.78000000000021         0.21709666252642806
23.80000000000021         0.2196004711288978
23.820000000000213        0.22469724995697357
23.84000000000022         0.2326305124629988
23.860000000000216        0.24378955839142488
23.88000000000021         0.25873952348287454
23.90000000000022         0.2782599707960805
23.920000000000222        0.30337873065421234
23.94000000000022         0.3353439404154133
23.960000000000218        0.3753213062419587
23.980000000000224        0.4231673024129264
24.000000000000234        0.4745282249599046
24.020000000000227        0.5200705985551558
24.040000000000223        0.5531021732148309
24.060000000000226        0.5706386352357692
24.080000000000222        0.5757802797962351
24.10000000000023         0.5706874216545053
24.120000000000232        0.5531367255313638
24.140000000000235        0.5202122995027084
24.160000000000245        0.4747071657836812
24.18000000000024         0.42337571318227646
24.200000000000248        0.37555556493592873
24.220000000000244        0.33560423387615923
24.24000000000025         0.30366702623804004
24.260000000000257        0.2785789290538907
24.280000000000257        0.2590921140137747
24.30000000000026         0.244181139923586
24.320000000000267        0.23306167973759828
24.34000000000026         0.22517171031782435
24.360000000000262        0.22012247556848863
24.380000000000262        0.2176710812264819
24.40000000000027         0.21770107443159376
24.42000000000026         0.22021301176468966
24.440000000000275        0.22532450439482213
24.460000000000285        0.23327975640286958
24.48000000000028         0.24446915511404996
24.500000000000284        0.25945940693249225
24.520000000000277        0.2790322400267161
24.54000000000028         0.30421834566644246
24.560000000000283        0.33626935568662486
24.580000000000283        0.3762890267212562
24.600000000000286        0.42424083618738856
24.620000000000285        0.4758359209228241
24.640000000000292        0.5216316920057991
24.660000000000284        0.5546194349256764
24.680000000000284        0.5722050142008044
24.700000000000287        0.5773613538973209
24.72000000000029         0.5722539946470228
24.740000000000286        0.5546538162522623
24.760000000000296        0.5216387856948366
24.780000000000303        0.4760102022452645
24.800000000000303        0.4245423707782159
24.820000000000302        0.37659679110908284
24.84000000000031         0.3365413999395636
24.860000000000312        0.3045152264790162
24.88000000000031         0.27936974290823025
24.900000000000308        0.2598349149462046
24.920000000000318        0.24488403923494484
24.940000000000328        0.23373708783700595
24.960000000000317        0.22582814929531103
24.980000000000324        0.2207674208254723
25.00000000000033         0.2183113652723306
25.020000000000326        0.21834324098992408
25.04000000000033         0.22086364303509406
25.06000000000033         0.22599054974469335
25.080000000000336        0.23396889061741863
25.100000000000342        0.24519019524167698
25.120000000000342        0.2602252003958724
25.140000000000338        0.2798515379943949
25.16000000000034         0.3051014031510663
25.18000000000034         0.33722254215840114
25.20000000000034         0.37738150260092695
25.22000000000034         0.42546911345250377
25.24000000000034         0.477211531351165
25.26000000000035         0.5231400937617809
25.28000000000034         0.5562250838149281
25.300000000000338        0.5738640965291025
25.320000000000338        0.5790372736319953
25.340000000000337        0.5739159240677153
25.36000000000034         0.5562649575625009
25.380000000000347        0.5231551788449007
25.400000000000354        0.47740254656924574
25.42000000000036         0.4256944523817891
25.440000000000357        0.37763834608577507
25.46000000000036         0.33751084938522913
25.480000000000363        0.3054228162888312
25.500000000000366        0.2802085709229556
25.520000000000373        0.26062083766807764
25.540000000000372        0.24562994552571496
25.560000000000386        0.23445364001995858
25.580000000000382        0.22652440940260257
25.600000000000378        0.22145133554133103
25.620000000000378        0.21899018602253084
25.64000000000038         0.21902390190625456
25.660000000000384        0.22155311110548956
25.680000000000383        0.2266971728723997
25.700000000000387        0.23470036271392886
25.720000000000397        0.24595586342533243
25.740000000000393        0.2610333314688177
25.760000000000396        0.28071776316689884
25.780000000000403        0.3060423253234038
25.800000000000402        0.3382585993138674
25.8200000000004          0.37853678580731537
25.8400000000004          0.4267677464546188
25.8600000000004          0.47866573035561416
25.880000000000393        0.5247345647983578
25.900000000000396        0.5579223379012931
25.920000000000393        0.5756179585735482
25.94000000000039         0.5808092874219817
25.96000000000039         0.5756747951744379
25.9800000000004          0.5580346305153044
26.0000000000004          0.5248980050037381
26.02000000000041         0.47887252899091204
26.040000000000425        0.42701023807961425
26.060000000000418        0.3788115102586195
26.080000000000418        0.338565695490705
26.100000000000417        0.30638379975057095
26.120000000000424        0.2810964692597207
26.14000000000043         0.26145254162375914
26.160000000000426        0.24641915434156805
26.18000000000043         0.23521164993116592
26.20000000000044         0.2272608059620086
26.22000000000043         0.22217398619126463
26.24000000000043         0.21970768291031173
26.260000000000435        0.2197435398440073
26.280000000000435        0.2222822756282807
26.30000000000044         0.22744270819195908
26.320000000000448        0.23547135710940073
26.340000000000444        0.2467621354132128
26.360000000000458        0.26188653069587936
26.380000000000454        0.28163206075130814
26.400000000000453        0.3070352145439973
26.42000000000046         0.33935161346440984
26.440000000000456        0.37975530361095805
26.460000000000452        0.428137177626689
26.48000000000046         0.48019893942235753
26.500000000000455        0.5262794137043497
26.52000000000046         0.5596475035418241
26.540000000000457        0.5774654494041642
26.560000000000453        0.5826759445965385
26.580000000000453        0.5775254828513305
26.60000000000045         0.5598284683811281
26.62000000000046         0.52658611421541
26.640000000000462        0.48041514205774044
26.66000000000046         0.4283911445954754
26.680000000000476        0.380043531652363
26.700000000000475        0.33967421860591857
26.720000000000475        0.3073942399262645
26.740000000000478        0.28203044681201533
26.760000000000485        0.26232525790733985
26.780000000000484        0.247247517613076
26.800000000000487        0.2360078665717372
26.820000000000498        0.22803484166275445
26.840000000000494        0.2229350542439878
26.860000000000497        0.22046280344625216
26.880000000000496        0.22050038164003533
26.900000000000496        0.22304853119870055
26.920000000000503        0.22822648376596164
26.9400000000005          0.23628159421569378
26.96000000000051         0.24760909853261492
26.980000000000512        0.26278239712557344
27.000000000000508        0.28259164144896093
27.02000000000051         0.3080767890051623
27.04000000000051         0.34052428588114514
27.06000000000051         0.381098377436944
27.080000000000506        0.4296615537208609
27.100000000000513        0.4817988344856198
27.12000000000051         0.5280397256174717
27.1400000000005          0.5615214921314863
27.16000000000051         0.579402103754828
27.180000000000504        0.584632240073022
27.200000000000497        0.5794653132850854
27.22000000000051         0.5617090491102975
27.24000000000051         0.5283561733729345
27.260000000000524        0.482032919768033
27.280000000000527        0.42983939826114625
27.300000000000544        0.3813356209495358
27.320000000000537        0.34086347469706824
27.34000000000054         0.3084603500740047
27.36000000000054         0.2830092497693511
27.380000000000543        0.2632431676756934
27.40000000000055         0.24811874795032096
27.420000000000545        0.23684477903292345
27.44000000000055         0.22884789219682894
27.46000000000055         0.22373341063461857
27.48000000000055         0.2212548563940007
27.50000000000055         0.22129415617552875
27.520000000000554        0.22385207649537936
27.540000000000553        0.22904828057895532
27.560000000000564        0.2371309992515445
27.580000000000563        0.24849465209617974
27.60000000000057         0.2637188613714848
27.620000000000573        0.28359637244070873
27.64000000000057         0.30917451508989097
27.660000000000572        0.34172520142116647
27.680000000000565        0.382436765465173
27.700000000000568        0.4311652566702089
27.72000000000056         0.4834814278772487
27.74000000000056         0.5298830026094473
27.76000000000056         0.5634825992968623
27.780000000000566        0.5814275274932582
27.800000000000566        0.5866771615706763
27.820000000000558        0.5814919668877535
27.84000000000056         0.5636725654763121
27.860000000000564        0.5300660803975723
27.880000000000575        0.4837143786775438
27.900000000000574        0.4314403796386097
27.92000000000058         0.38275038467822364
27.94000000000059         0.3420773401050303
27.960000000000594        0.3095672303121304
27.980000000000594        0.2840327300769319
28.000000000000597        0.2642024540212431
28.0200000000006          0.2490294374544789
28.0400000000006          0.23771973082772654
28.060000000000603        0.22969798387728138
28.080000000000613        0.22456816488329262
28.10000000000061         0.2220829756605477
28.12000000000061         0.22212397976579318
28.140000000000615        0.22469143599878783
28.160000000000615        0.22990607046047332
28.18000000000061         0.2380168277634195
28.200000000000614        0.24942186506865913
28.220000000000613        0.26469912823691794
28.240000000000627        0.28464583721345865
28.260000000000623        0.31031312713542364
28.280000000000626        0.34297754507949063
28.30000000000063         0.38383183909176244
28.320000000000626        0.43273203608447824
28.34000000000062         0.48523433443544217
28.36000000000062         0.5318036699960954
28.380000000000614        0.5655266408806371
28.40000000000061         0.5835394123035477
28.420000000000616        0.5888102850392039
28.440000000000612        0.5836064527496854
28.46000000000062         0.5656588719669667
28.48000000000061         0.5319965084710527
28.500000000000625        0.485479554967899
28.520000000000632        0.433020990349038
28.540000000000642        0.38416048543189
28.56000000000065         0.34334604060271773
28.580000000000645        0.31072375295320764
28.60000000000065         0.28510185887242645
28.620000000000648        0.2652043365143797
28.640000000000658        0.2499804147415307
28.660000000000654        0.23863325865371374
28.68000000000065         0.23058645411253012
28.70000000000066         0.22544002382608092
28.72000000000067         0.22294736966120357
28.740000000000673        0.22298959953002162
28.76000000000067         0.22556749325894
28.780000000000665        0.2308015662501492
28.800000000000683        0.238941865116347
28.82000000000067         0.25038803891218764
28.840000000000682        0.2657201990373074
28.860000000000685        0.2857385535040325
28.880000000000685        0.3114981798483421
28.900000000000684        0.34428042456456437
28.920000000000684        0.38528261391781415
28.94000000000068         0.4343607970011326
28.960000000000676        0.4870621582879926
28.98000000000067         0.5339375858179704
29.000000000000668        0.5677159679093015
29.020000000000667        0.5857356042667385
29.04000000000066         0.5910277427404165
29.060000000000677        0.5858048984924962
29.08000000000067         0.5677895737424316
29.100000000000676        0.5340015402104591
29.120000000000683        0.4873125311766545
29.140000000000686        0.43466252971557456
29.160000000000696        0.38562549314453326
29.180000000000703        0.34466472520354274
29.200000000000706        0.3119263774016256
29.220000000000706        0.28621486838631255
29.24000000000071         0.26624941091315374
29.260000000000716        0.2509726297050196
29.280000000000715        0.23958613839284137
29.300000000000715        0.23151079208167025
29.320000000000725        0.22634773939348252
29.340000000000728        0.2238478566604996
29.360000000000724        0.22389182941244598
29.38000000000073         0.22648048232502704
29.40000000000073         0.2317348347511674
29.420000000000734        0.23990591924222357
29.440000000000726        0.25139494313501787
29.46000000000073         0.2667842791564247
29.480000000000736        0.28687725741198217
29.500000000000746        0.3127266480499156
29.520000000000735        0.3456111478329971
29.540000000000738        0.38672757370246047
29.560000000000738        0.43596721436076424
29.580000000000727        0.48896063978081716
29.600000000000723        0.5360175832716699
29.62000000000072         0.5699286553714116
29.64000000000072         0.5880206954388911
29.66000000000072         0.5933345957299238
29.680000000000724        0.5880903969599598
29.700000000000724        0.5700025039663331
29.720000000000727        0.5360820631963454
29.740000000000734        0.4892131010384054
29.760000000000744        0.4363647149381937
29.780000000000747        0.3870784448069926
29.800000000000757        0.3460067674552935
29.82000000000077         0.3131692012407311
29.840000000000764        0.2873707451997771
29.860000000000763        0.2673333503944761
29.88000000000077         0.2520020618936167
29.900000000000766        0.24057545164539448
29.920000000000773        0.23247216428586867
29.94000000000078         0.22729182978234125
29.96000000000078         0.22478438443452012
29.980000000000786        0.22483007693603038
30.00000000000078         0.22742976568400397
30.02000000000079         0.23270498531618142
30.040000000000784        0.24090941332443333
30.06000000000079         0.25244327631960417
30.080000000000787        0.2678918566533273
30.10000000000079         0.2880602814822755
30.1200000000008          0.31400824257536797
30.140000000000796        0.3470195720832856
30.160000000000792        0.38829524213630384
30.180000000000792        0.4377266818629786
30.200000000000784        0.490928609740654
30.220000000000777        0.5381738476761879
30.240000000000776        0.5722228791363434
30.26000000000078         0.5903906898446004
30.280000000000776        0.5957282307498852
30.300000000000775        0.5904637796494071
30.320000000000782        0.572368768849383
30.34000000000079         0.5383867865020301
30.360000000000788        0.4911994540999385
30.38000000000081         0.4380469159342108
30.40000000000081         0.3886611595124209
30.42000000000081         0.3474315231243345
30.440000000000826        0.31446871533671317
30.46000000000082         0.2885727360481262
30.48000000000082         0.26846028712644976
30.50000000000082         0.2530721447397554
30.52000000000083         0.24160367735516633
30.540000000000827        0.23347120958394577
30.560000000000823        0.22827277554293424
30.580000000000833        0.22575732187670092
30.600000000000836        0.22580480280914386
30.620000000000832        0.2284161469737866
30.640000000000835        0.2337132869675351
30.66000000000084         0.24194937209034437
30.680000000000838        0.2535288200851806
30.70000000000084         0.2690383188407258
30.720000000000844        0.2892863296266734
30.740000000000844        0.31533694044818694
30.760000000000854        0.34847934779050904
30.780000000000847        0.389919662369097
30.800000000000846        0.43954945846230375
30.820000000000842        0.49296703406359793
30.84000000000084         0.5404069803357819
30.86000000000083         0.5745332345428397
30.88000000000083         0.5928436750138953
30.900000000000833        0.5982056267352251
30.92000000000083         0.5929195357735058
30.940000000000843        0.5747467768006663
30.96000000000084         0.540623447676718
30.98000000000085         0.49324290332745324
31.000000000000856        0.4398770730987418
31.020000000000866        0.39029566779534447
31.04000000000087         0.3489040403259427
31.060000000000873        0.3158127231003801
31.080000000000886        0.28981663370581157
31.100000000000882        0.26962713105415326
31.12000000000088         0.2541806008768779
31.14000000000088         0.2426674948496574
31.160000000000885        0.23450563968177937
31.180000000000884        0.22928909021986663
31.200000000000887        0.22676580932543958
31.220000000000894        0.22681517201781973
31.240000000000897        0.22943816016840976
31.260000000000897        0.2347574225590044
31.280000000000896        0.243027194886572
31.300000000000903        0.25465362030801864
31.320000000000903        0.27022588597015273
31.34000000000091         0.29055589627514977
31.360000000000916        0.31671227899628457
31.38000000000091         0.3499897582812664
31.4000000000009          0.39159973866828524
31.420000000000897        0.4415260722690326
31.440000000000904        0.4950683974259358
31.460000000000896        0.5425762957653486
31.480000000000903        0.5769898853704201
31.500000000000888        0.5953823434606136
31.520000000000888        0.6007701384454935
31.540000000000887        0.5954628259775375
31.560000000000894        0.5772131908832993
31.580000000000886        0.5429459252548936
31.600000000000904        0.4953667812968405
31.62000000000091         0.4417791925388416
31.640000000000917        0.3919933881457847
31.66000000000093         0.35043249235176643
31.680000000000938        0.31721355172854426
31.70000000000093         0.29110574435869707
31.72000000000093         0.27083431534168206
31.740000000000933        0.2553272013201968
31.76000000000094         0.24377155337272846
31.780000000000946        0.23557840026412694
31.800000000000946        0.23034236112636688
31.820000000000945        0.22781034104514086
31.840000000000952        0.22786121685470415
31.86000000000095         0.2304959940865138
31.880000000000948        0.23583786986204042
31.900000000000947        0.24414219829580183
31.920000000000954        0.2558169026138101
31.940000000000946        0.2714537522412893
31.96000000000096         0.29186740038023623
31.980000000000967        0.3181401444332828
32.00000000000096         0.3515777944571324
32.02000000000096         0.3934034669815934
32.040000000000944        0.4434733864054936
32.06000000000095         0.4972449738979985
32.080000000000936        0.5449596943473
32.10000000000094         0.5795253657608057
32.12000000000093         0.5980011083659522
32.140000000000924        0.6034138219096197
32.16000000000093         0.5980818503005937
32.18000000000094         0.5797490737350602
32.20000000000094         0.5453302308726834
32.22000000000094         0.4975446430829871
32.240000000000954        0.4438228437064287
32.26000000000096         0.39380474758417733
32.28000000000096         0.3520313177392986
32.30000000000098         0.31864860985936505
32.320000000000974        0.29243455491645765
32.34000000000097         0.27208139641577045
32.36000000000097         0.2565123982057251
32.380000000000976        0.24491115328477797
32.40000000000098         0.23668615724366435
32.42000000000098         0.23143032157710494
32.440000000000985        0.22888949320616409
32.46000000000098         0.22894205483206387
32.480000000000985        0.23158904810258887
32.500000000000995        0.23695320824048877
32.52000000000099         0.24529251245584846
32.540000000000994        0.257016256651238
32.560000000001004        0.27271932714251335
32.58000000000101         0.2932223169201011
32.60000000000099         0.31960722853353407
32.62000000000099         0.3531882812450235
32.640000000000995        0.3951942833821669
32.66000000000099         0.44548155858211613
32.68000000000098         0.4994892680816614
32.70000000000097         0.5474173772576115
32.720000000000965        0.5821402356699457
32.74000000000096         0.6007024726996506
32.76000000000096         0.6061417311611571
32.78000000000095         0.6007857306810671
32.80000000000098         0.5823027251655092
32.82000000000097         0.5476549057997155
32.84000000000098         0.4997928476433721
32.860000000000994        0.44584276402874295
32.880000000001           0.3956094296856061
32.90000000000101         0.35365792249220657
32.920000000001004        0.3201342302614746
32.94000000000101         0.29381059484962235
32.96000000000101         0.2733733221442601
32.980000000001006        0.25774081044351244
33.000000000001           0.24609295059932013
33.02000000000101         0.2378355587657999
33.04000000000101         0.2325597587790455
33.06000000000102         0.2300104947372738
33.080000000001036        0.2300649298688624
33.10000000000102         0.23272465278350682
33.12000000000102         0.2381139721055072
33.140000000001024        0.24649057789171758
33.16000000000102         0.25826623499818896
33.18000000000102         0.27403860325243523
33.20000000000102         0.2946321038085396
33.22000000000102         0.32113379804690634
33.24000000000101         0.35486408430463545
33.26000000000103         0.3970576975656112
33.280000000001024        0.44757107962575615
33.30000000000101         0.5018244379959236
33.320000000001016        0.5499746222780668
33.340000000001           0.5849276026880104
33.360000000000994        0.6035144607863075
33.380000000001004        0.6089811449069623
33.40000000000099         0.6036003616580817
33.42000000000099         0.5850323864403381
33.440000000001014        0.5502249530364174
33.46000000000102         0.5021442069755814
33.48000000000102         0.44795035123004984
33.50000000000103         0.3974923048531343
33.52000000000103         0.35535495442483006
33.540000000001044        0.3216843093838082
33.56000000000105         0.29524660718462853
33.58000000000105         0.2747218943567831
33.600000000001046        0.2590257588230334
33.62000000000106         0.24732899676499162
33.640000000001045        0.23903757810099843
33.66000000000105         0.23374080049122858
33.68000000000106         0.2311822553800863
33.700000000001054        0.2312392492520825
33.72000000000108         0.23391285445334006
33.74000000000105         0.2393280084237677
33.76000000000106         0.24774366215112012
33.78000000000106         0.25957357863391367
33.80000000000107         0.2754183120084746
33.82000000000106         0.29610627775144516
33.84000000000106         0.3227298145777898
33.860000000001065        0.3566157659055232
33.88000000000106         0.39893629392308005
33.90000000000107         0.44966060366151267
33.92000000000105         0.5042696460061594
33.94000000000104         0.5527878749297089
33.960000000001024        0.5877707706826644
33.98000000000103         0.6064517070282852
34.00000000000102         0.6119473019376103
34.020000000001026        0.6065400455226537
34.040000000001044        0.5878801787117569
34.06000000000105         0.5529041831195941
34.08000000000106         0.5045940603446503
34.10000000000105         0.4501467813701502
34.12000000000106         0.3994561105176962
34.14000000000107         0.35712650284208763
34.16000000000107         0.32329717317735823
34.18000000000107         0.2967488533508173
34.200000000001076        0.2761353195901319
34.22000000000109         0.2603684682748408
34.24000000000108         0.24862182740436758
34.26000000000108         0.24029598151569811
34.280000000001074        0.23497822918625244
34.30000000000109         0.23241094480361066
34.32000000000109         0.23247090989398617
34.340000000001076        0.2351592708466763
34.36000000000109         0.24060163333385817
34.38000000000109         0.24905827198437874
34.4000000000011          0.2609450407874725
34.42000000000109         0.27686803400826593
34.44000000000109         0.2976531251173646
34.46000000000109         0.32439658515630293
34.48000000000109         0.358424019342489
34.5000000000011          0.40097646794316283
34.5200000000011          0.45194707843720744
34.54000000000109         0.5068248560788499
34.56000000000108         0.555587471761597
34.58000000000109         0.5907503877856553
34.60000000000107         0.6095309276814159
34.62000000000107         0.6150575122755596
34.640000000001066        0.6096229128577054
34.66000000000107         0.5908670390216133
34.68000000000108         0.5557146344069508
34.70000000000109         0.5071699393032567
34.72000000000111         0.45235731635129256
34.74000000000111         0.4014481755522136
34.76000000000111         0.35895869856115137
34.78000000000111         0.32499814768050433
34.800000000001106        0.298326419417485
34.820000000001116        0.2776183327604795
34.84000000000112         0.26178027599716985
34.86000000000111         0.24998162133987156
34.880000000001125        0.2416199586168065
34.90000000000113         0.2362805215952428
34.92000000000112         0.2337043825345932
34.94000000000113         0.23376774227742939
34.960000000001116        0.23647183616914264
34.980000000001134        0.24194404306690506