% Model:              Untitled.mph
% Version:            COMSOL 5.6.0.280
% Date:               Sep 28 2021, 21:01
% Dimension:          1
% Nodes:              1015
% Expressions:        1
% Description:        线图
% cln1x                   Height
49.2                      0.337889042068582
49.21999999999992         0.3363884167791018
49.23999999999991         0.34023657651658884
49.259999999999906        0.34979288725922286
49.2799999999999          0.36575024053765587
49.2999999999999          0.3891624741718975
49.319999999999894        0.42140636626427863
49.339999999999876        0.46383646612877827
49.35999999999987         0.5164029222826747
49.37999999999987         0.5742791116005986
49.399999999999864        0.6264711398618109
49.41999999999985         0.6644033030764842
49.43999999999984         0.6846972484011998
49.45999999999984         0.6905011636916261
49.47999999999982         0.684177933312965
49.499999999999815        0.6631774401822746
49.519999999999825        0.6241990444463301
49.53999999999983         0.5705032152354494
49.55999999999981         0.5106164203767187
49.57999999999979         0.4555961556800597
49.59999999999979         0.41035785456759527
49.61999999999979         0.3750088273306394
49.63999999999978         0.3482140796834764
49.65999999999977         0.3285849358462304
49.67999999999976         0.31503014894498704
49.699999999999775        0.30679692686265125
49.71999999999975         0.30344370757155065
49.739999999999746        0.30481312410611405
49.759999999999735        0.31101870220188577
49.77999999999973         0.322455524729323
49.79999999999973         0.33982571947324425
49.81999999999972         0.3641645285839953
49.839999999999705        0.3968022250340003
49.85999999999971         0.4390283206841939
49.87999999999969         0.4907534669703662
49.89999999999969         0.5472570861949525
49.91999999999969         0.5979162304457355
49.939999999999685        0.6346041328702989
49.959999999999695        0.6541943642873665
49.97999999999967         0.6598548292116646
49.99999999999967         0.6539435938644813
50.01999999999966         0.6340427711357636
50.03999999999966         0.5969315681401849
50.05999999999963         0.5457019536783937
50.07999999999962         0.48846503032474875
50.09999999999962         0.4358643919156656
50.11999999999961         0.39265130763054085
50.1399999999996          0.35893705562813827
50.1599999999996          0.33344223482468066
50.17999999999959         0.31483643413941026
50.19999999999959         0.3020758463849002
50.219999999999565        0.2944423611096389
50.23999999999957         0.2915173089237924
50.25999999999958         0.29315485473150515
50.27999999999956         0.2994733721972764
50.299999999999564        0.3108580264733704
50.319999999999546        0.32799370282076157
50.339999999999534        0.35188613524048395
50.35999999999952         0.38382529286576594
50.37999999999953         0.4250579920795585
50.39999999999952         0.4754844018357188
50.41999999999951         0.5304919725801674
50.43999999999951         0.579739275218863
50.4599999999995          0.6153663382298946
50.479999999999485        0.6343677731062215
50.499999999999496        0.6398634770054912
50.519999999999506        0.6341657872068216
50.53999999999948         0.6148585094431469
50.559999999999484        0.5789897651211103
50.579999999999465        0.5293430570977895
50.59999999999946         0.4738342887163601
50.61999999999943         0.422816355515802
50.639999999999425        0.38091992081096937
50.65999999999942         0.34825766113983614
50.67999999999942         0.3235884267395327
50.69999999999941         0.30562153502266437
50.71999999999941         0.2933450708068059
50.7399999999994          0.2860638225920683
50.759999999999394        0.2833737945022346
50.77999999999938         0.28513645546650895
50.79999999999938         0.2914688012136017
50.819999999999375        0.30275232940355457
50.839999999999364        0.31965952107038337
50.85999999999936         0.34316869958875706
50.87999999999935         0.3745423348373495
50.89999999999935         0.41499635524745815
50.91999999999935         0.4644254196482745
50.939999999999344        0.5183023844346066
50.95999999999935         0.5664989864172698
50.97999999999934         0.6013452455937466
50.99999999999934         0.619918528012306
51.01999999999934         0.6252937558879242
51.039999999999324        0.6197447219541705
51.05999999999931         0.6009082454471456
51.07999999999932         0.5657454814442118
51.09999999999929         0.5173837142948728
51.11999999999929         0.4631356216461111
51.13999999999926         0.41327359750135534
51.159999999999265        0.37233576312812855
51.17999999999925         0.3404351080845071
51.19999999999925         0.3163587318447424
51.21999999999923         0.2988452590902089
51.23999999999922         0.2869061736400452
51.259999999999216        0.2798629212739683
51.27999999999921         0.2773220015655918
51.299999999999216        0.27914984541894283
51.31999999999921         0.28546319297644623
51.339999999999186        0.2966379952509429
51.35999999999919         0.3133342133117846
51.37999999999918         0.33651650153584445
51.39999999999917         0.36742047351730256
51.41999999999917         0.4072396966405754
51.43999999999916         0.4558658654195175
51.45999999999917         0.5088415093264523
51.47999999999916         0.5562078188141344
51.49999999999915         0.5904408077238291
51.51999999999914         0.6086796925593557
51.53999999999913         0.6139599253577013
51.55999999999914         0.6085225890840108
51.57999999999914         0.5900459297447714
51.59999999999913         0.5555361656791875
51.619999999999116        0.5080561819258004
51.6399999999991          0.4548828362799333
51.65999999999908         0.4058331748769699
51.679999999999076        0.3656409344153592
51.699999999999065        0.334330417860798
51.719999999999075        0.3107108626733058
51.73999999999905         0.2935438540917729
51.75999999999907         0.2818591403083361
51.779999999999035        0.27499109088866763
51.799999999999045        0.2725542502740383
51.81999999999903         0.27441870718070277
51.83999999999902         0.28070071402141367
51.85999999999902         0.2917715193593449
51.879999999999           0.3082818122121792
51.899999999999004        0.33118698115395395
51.919999999999           0.3616891479061922
51.93999999999898         0.4009778012484665
51.959999999998985        0.44893798530271034
51.97999999999898         0.5011702939541353
51.999999999998984        0.5478551125344461
52.019999999998994        0.5815863284524205
52.039999999998976        0.5995522454379566
52.05999999999897         0.6047543064263811
52.07999999999897         0.5994056786569284
52.099999999998964        0.5812182057963143
52.119999999998946        0.5472362990468272
52.139999999998935        0.5004747169393411
52.159999999998924        0.44809807331492707
52.179999999998905        0.3998449398424139
52.19999999999889         0.3601962324355082
52.21999999999889         0.3293641135323824
52.23999999999886         0.3061135305616166
52.25999999999887         0.28922477498277593
52.27999999999887         0.2777424409625484
52.299999999998846        0.271011360857455
52.31999999999886         0.26865253730722155
52.33999999999883         0.27053891176029654
52.35999999999885         0.2767861760021878
52.37999999999882         0.28776154383127606
52.39999999999882         0.3041079015177602
52.41999999999882         0.32676871576944866
52.43999999999881         0.3569542236977494
52.45999999999879         0.3958289054817868
52.4799999999988          0.4431633327311313
52.4999999999988          0.4947682194515361
52.51999999999882         0.5408799517111716
52.53999999999882         0.5741904281289835
52.55999999999881         0.5919283209251974
52.57999999999881         0.5970655963970892
52.59999999999879         0.591791699798219
52.6199999999988          0.5738465808654553
52.63999999999878         0.5403064607016469
52.65999999999877         0.4941458840295532
52.67999999999875         0.44243528637774243
52.69999999999873         0.39479497349435816
52.71999999999872         0.3556769769724483
52.739999999998695        0.3252208449809061
52.75999999999871         0.30227828533029444
52.779999999998694        0.2856214843718119
52.79999999999869         0.2743073892836441
52.819999999998686        0.2676895327439823
52.83999999999866         0.26539427531960985
52.859999999998664        0.26729690216713203
52.879999999998674        0.27351259034717174
52.899999999998656        0.28440512753124003
52.91999999999866         0.3006108232317133
52.93999999999864         0.3230631263970297
52.95999999999864         0.3529591097424033
52.97999999999863         0.39145010744278325
52.999999999998614        0.43839228804762614
53.019999999998625        0.4893816649247302
53.03999999999863         0.5350098939065699
53.059999999998624        0.5679660180449955
53.079999999998634        0.5855124121512093
53.099999999998644        0.5905957690708916
53.119999999998626        0.5853854673442492
53.139999999998636        0.5676451146618829
53.159999999998604        0.5344773941456682
53.1799999999986          0.48882288881542035
53.19999999999856         0.43767230552123354
53.219999999998564        0.39054673324505423
53.23999999999853         0.3518540179206565
53.25999999999853         0.32173802519859607
53.27999999999852         0.29904702149657353
53.29999999999851         0.2825846830746672
53.3199999999985          0.27140986883408147
53.339999999998504        0.26488453973361886
53.359999999998486        0.26263949711580575
53.37999999999847         0.2645519212317589
53.399999999998485        0.2707364636897712
53.41999999999847         0.281553914469109
53.43999999999846         0.29763490831456424
53.45999999999846         0.3199043088180009
53.47999999999847         0.3495479436033787
53.499999999998444        0.38770595661152135
53.51999999999846         0.4342343936488516
53.53999999999845         0.4847616556023616
53.55999999999847         0.5299784443998892
53.57999999999848         0.5626297280936177
53.599999999998474        0.5800114558406353
53.6199999999985          0.5850479748476871
53.639999999998466        0.5798908676050712
53.65999999999847         0.5623240651237666
53.679999999998444        0.5294740442324873
53.69999999999843         0.484252592666588
53.71999999999839         0.43358301144793776
53.73999999999838         0.3869001752314104
53.759999999998364        0.34857307506404106
53.779999999998374        0.3187448495574535
53.79999999999834         0.2962746393067747
53.81999999999834         0.27997519215541905
53.83999999999833         0.26892092720751465
53.859999999998315        0.26247342131449186
53.87999999999832         0.26026947139072054
53.8999999999983          0.26218785377866916
53.919999999998296        0.2683427235737233
53.939999999998285        0.2790922346842014
53.95999999999828         0.2950620664805988
53.97999999999828         0.3171696122543712
53.99999999999827         0.34659095310481375
54.01999999999826         0.384456566626531
54.03999999999828         0.4306225501037737
54.05999999999826         0.48075018735312897
54.079999999998286        0.525474134379249
54.099999999998296        0.5579280770626209
54.1199999999983          0.5752280229372368
54.139999999998295        0.5802238244018139
54.15999999999829         0.5751126910712623
54.17999999999828         0.5576962660366849
54.19999999999826         0.5251220656203313
54.21999999999824         0.48027693664197535
54.23999999999821         0.4300258132408422
54.2599999999982          0.38372824163558905
54.279999999998175        0.3457191320443818
54.299999999998164        0.3161409449411562
54.31999999999816         0.29386229242571316
54.339999999998156        0.27770575673316483
54.359999999998145        0.2667518076452096
54.379999999998134        0.2603724888121782
54.39999999999813         0.2582028127276804
54.41999999999813         0.2601245916694726
54.439999999998115        0.26625150699571004
54.459999999998104        0.27693936128959545
54.4799999999981          0.29280944329178743
54.49999999999809         0.31477254042627906
54.5199999999981          0.3439961332224369
54.53999999999809         0.381602215538667
54.55999999999809         0.42744710881551495
54.57999999999811         0.47722167505247565
54.59999999999813         0.5216267368635619
54.61999999999812         0.5538474666956047
54.63999999999813         0.5710214902854397
54.65999999999812         0.5759835970716632
54.67999999999812         0.5709141954535183
54.699999999998106        0.5536314665823587
54.71999999999809         0.5213007457594874
54.73999999999806         0.47678673376811115
54.75999999999803         0.42690223898141577
54.77999999999802         0.38094136129133843
54.799999999998           0.3432097735043474
54.81999999999799         0.3138494678445363
54.83999999999798         0.29173730840716916
54.859999999997974        0.2757044382875254
54.87999999999796         0.2648380790296336
54.89999999999796         0.25851411472796015
54.91999999999795         0.2563728993180846
54.93999999999793         0.2582948259626128
54.95999999999793         0.26439393795160604
54.979999999997936        0.27502389562372104
54.99999999999791         0.29080203959582807
55.01999999999792         0.3126332469701724
55.03999999999791         0.34167733024201563
55.059999999997906        0.3790487570722551
55.079999999997916        0.4246040834821145
55.09999999999791         0.47406043243826596
55.11999999999793         0.5181776285007728
55.13999999999795         0.5501874700941493
55.15999999999795         0.5672477745577607
55.17999999999794         0.5721776995739521
55.199999999997935        0.567144469946743
55.21999999999793         0.5499802371390141
55.23999999999791         0.5178666996447211
55.25999999999789         0.4736487626330894
55.279999999997855        0.4240929892943014
55.29999999999784         0.3784341333276054
55.31999999999782         0.34095112507753866
55.33999999999781         0.3117854539432149
55.3599999999978          0.28982142810010364
55.37999999999778         0.27389790616501547
55.39999999999778         0.2631081804740906
55.41999999999778         0.2568323506047596
55.439999999997774        0.2547132666546474
55.45999999999776         0.25663309820466884
55.479999999997766        0.26270285711167507
55.49999999999775         0.27327671071072995
55.51999999999775         0.2889675112498745
55.539999999997754        0.31067469884923504
55.559999999997736        0.3395510537733581
55.57999999999774         0.3767041698854655
55.599999999997735        0.42199088953037295
55.619999999997745        0.4711524900866346
55.63999999999776         0.5150030351614732
55.659999999997765        0.5468174105061511
55.67999999999779         0.5637719584770379
55.69999999999778         0.568671358301147
55.71999999999777         0.563671391111074
55.739999999997764        0.5466142821236138
55.75999999999774         0.5146998338103362
55.77999999999771         0.47075398920706435
55.799999999997695        0.42150117640492457
55.81999999999766         0.37612093718198303
55.83999999999766         0.3388671028748368
55.85999999999763         0.3098806168454918
55.87999999999763         0.28805267841931775
55.89999999999761         0.27222928744743363
55.9199999999976          0.261509342531212
55.9399999999976          0.2552768283000337
55.9599999999976          0.25317690494959316
55.97999999999758         0.25509259758299235
55.999999999997584        0.2611360428451022
56.01999999999757         0.2716545416084876
56.039999999997555        0.28726246614534645
56.059999999997565        0.30885251917903384
56.079999999997554        0.33757090338688744
56.099999999997564        0.37451879681930317
56.11999999999755         0.41955340206588243
56.13999999999756         0.4684389059415234
56.159999999997574        0.5120403854420211
56.17999999999759         0.5436726016603354
56.19999999999759         0.5605290469330504
56.21999999999759         0.5654005376135162
56.2399999999976          0.5604313861459451
56.25999999999758         0.5435351328947403
56.27999999999757         0.511873352268722
56.299999999997524        0.4680549780668911
56.319999999997506        0.41908379718663163
56.339999999997474        0.37396206412920535
56.359999999997456        0.33692053850405884
56.379999999997445        0.3080997133418506
56.39999999999743         0.28639718370122913
56.41999999999743         0.2706655657477322
56.43999999999743         0.2600089423700684
56.459999999997414        0.2538148749879126
56.47999999999742         0.2517306347930813
56.4999999999974          0.2536400166667803
56.5199999999974          0.25965460822210795
56.5399999999974          0.2701219671545702
56.55999999999739         0.28564788420529846
56.57999999999738         0.307123211955125
56.59999999999738         0.3356891397491587
56.61999999999737         0.372439630164232
56.63999999999738         0.4172322915658355
56.65999999999741         0.4658532719271069
56.67999999999741         0.5092164104753014
56.69999999999742         0.5406744696632825
56.719999999997434        0.557437284960524
56.73999999999743         0.5622824577751305
56.759999999997426        0.5573434777980464
56.779999999997415        0.5405447225741782
56.79999999999739         0.5090609303770426
56.81999999999736         0.46549063015189907
56.839999999997325        0.416782025225234
56.85999999999731         0.3719055889508017
56.87999999999729         0.33506540133881035
56.89999999999727         0.30640161043880276
56.91999999999726         0.28481785146418354
56.939999999997255        0.26917298447922866
56.959999999997244        0.2585759850526318
56.97999999999724         0.2524177841324888
56.99999999999724         0.25034762936515054
57.01999999999722         0.2522500278993737
57.03999999999723         0.2582360443571446
57.0599999999972          0.2686514085382201
57.07999999999721         0.28409870823565325
57.09999999999719         0.3054594485110536
57.119999999997184        0.3338827464343226
57.13999999999719         0.3704427717799576
57.159999999997204        0.4150022015010149
57.17999999999721         0.4633683438611052
57.19999999999723         0.5065019496362271
57.21999999999725         0.5377922524596671
57.23999999999725         0.5544646825967888
57.259999999997255        0.5592838836892204
57.27999999999725         0.5543725955834681
57.29999999999723         0.5376656600436893
57.319999999997215        0.5063514263646616
57.339999999997175        0.4630138628990249
57.359999999997136        0.4144829423111557
57.37999999999713         0.36986669690018725
57.39999999999709         0.33327912343531646
57.41999999999708         0.3047672125723406
57.43999999999708         0.2832982507649319
57.459999999997066        0.26773718244503975
57.47999999999707         0.25719774334468243
57.49999999999705         0.2510741382814604
57.519999999997054        0.2490175327803012
57.53999999999705         0.2509131265236764
57.55999999999704         0.2568715006738995
57.579999999997035        0.26723665658990275
57.59999999999704         0.28260808833235973
57.61999999999703         0.30386278470928957
57.63999999999702         0.3321218365922238
57.659999999997005        0.3685203165828931
57.679999999997015        0.4128548562407504
57.69999999999703         0.4609753799227629
57.71999999999706         0.5038879144379942
57.73999999999709         0.5350167624056621
57.75999999999709         0.5516023406579276
57.779999999997095        0.5563967469662754
57.79999999999708         0.5515124070672548
57.81999999999707         0.534894261868217
57.83999999999705         0.5037436207560003
57.85999999999702         0.46063038440562953
57.879999999996976        0.4123485769250349
57.89999999999696         0.3679606039501674
57.91999999999693         0.33153817261954305
57.93999999999692         0.30319458299711577
57.959999999996896        0.28183616396587563
57.97999999999689         0.266355799614379
57.99999999999689         0.25587179401350624
58.01999999999689         0.24978149296162214
58.03999999999688         0.24773789791793885
58.05999999999687         0.24962686240943513
58.07999999999686         0.2555584925766162
58.099999999996854        0.2658751379113727
58.11999999999685         0.28117331647149546
58.13999999999683         0.3023256311253522
58.15999999999685         0.3304475782317675
58.17999999999683         0.36661120601879305
58.19999999999685         0.4107059105010996
58.21999999999684         0.45866961752650565
58.23999999999686         0.5013696388464668
58.259999999996886        0.5323437240743494
58.279999999996896        0.5488466031875476
58.29999999999691         0.5536179450370177
58.319999999996895        0.5487603313610071
58.339999999996884        0.532228534814241
58.35999999999686         0.5012360252071616
58.37999999999684         0.45833903482269794
58.399999999996794        0.4102966017506416
58.41999999999678         0.3661276538824132
58.439999999996736        0.32988492926160695
58.45999999999675         0.3016768640097604
58.47999999999672         0.280429024382113
58.49999999999673         0.265025960406896
58.51999999999671         0.25459494560402435
58.53999999999671         0.2485363274555865
58.55999999999669         0.24650485775777775
58.57999999999669         0.24838700378282247
58.59999999999668         0.2542923988628677
58.61999999999667         0.2645618011455722
58.63999999999667         0.27978889011848573
58.659999999996664        0.3008420506544561
58.67999999999666         0.32883138910132803
58.69999999999665         0.3648237550751437
58.71999999999667         0.4087088314947195
58.73999999999667         0.4564484571388204
58.75999999999671         0.49893715402764677
58.77999999999671         0.5297607994102994
58.799999999996736        0.5461826878594684
58.81999999999675         0.5509306226906578
58.839999999996735        0.5460973545611946
58.85999999999673         0.529647080748166
58.8799999999967          0.49880587844819
58.89999999999667         0.45611714399812253
58.91999999999662         0.4083068827998813
58.9399999999966          0.36435096539490114
58.95999999999657         0.3282830009071792
58.97999999999655         0.3002110749255852
58.99999999999655         0.2790671093561963
59.019999999996536        0.26373987904391427
59.039999999996525        0.25335797556020634
59.05999999999653         0.2473298026587322
59.07999999999651         0.24530974671299532
59.09999999999652         0.24718487004205558
59.119999999996494        0.2530643380039876
59.1399999999965          0.2632873510917923
59.15999999999648         0.2784448364917432
59.179999999996475        0.2994010913631431
59.19999999999647         0.3272609597781392
59.21999999999647         0.3630862187455604
59.23999999999648         0.4067668745896363
59.2599999999965          0.454283111164885
59.27999999999653         0.4966947324161007
59.29999999999655         0.5272492842719938
59.31999999999656         0.543592969147774
59.33999999999658         0.5483187100987851
59.35999999999657         0.5435097957760646
59.37999999999657         0.5271396309334502
59.399999999996524        0.49644620186620964
59.419999999996485        0.45396028249309617
59.43999999999644         0.4063753924488729
59.45999999999641         0.36262597512794553
59.479999999996394        0.3267273879224705
59.49999999999637         0.2987874265694298
59.51999999999638         0.27774308754777843
59.53999999999637         0.2624883951945101
59.55999999999636         0.2521576476666728
59.579999999996346        0.24615729802946576
59.59999999999635         0.24414814491607364
59.61999999999635         0.2460162292958832
59.63999999999633         0.2518702457438832
59.65999999999634         0.2620478592372681
59.67999999999632         0.2771373044188684
59.699999999996315        0.2979989099944629
59.71999999999631         0.3257323877939909
59.73999999999631         0.3613945507380245
59.75999999999632         0.40487575546726606
59.77999999999634         0.45217426557441287
59.79999999999637         0.49439063076248313
59.8199999999964          0.524861942189428
59.839999999996415        0.541073097767711
59.859999999996425        0.5457770447341512
59.879999999996414        0.5409925165936955
59.89999999999641         0.5247011450300892
59.91999999999637         0.494152205679357
59.93999999999633         0.45186405996471807
59.95999999999629         0.4044982863432259
59.97999999999626         0.36094940102094836
59.999999999996234        0.3252153042967109
60.019999999996216        0.2974035528444204
60.0399999999962          0.2764560493566567
60.059999999996194        0.26127189395166106
60.0799999999962          0.2509893654034223
60.09999999999619         0.24501845305315323
60.11999999999618         0.2430191507658236
60.13999999999617         0.24488044199909725
60.159999999996174        0.25070977026240593
60.17999999999617         0.2608433109224978
60.19999999999616         0.27586668829708383
60.21999999999616         0.29663640571238736
60.239999999996144        0.32424724566658913
60.25999999999614         0.3597512276907409
60.27999999999616         0.4030389907351394
60.299999999996174        0.450126025530686
60.31999999999623         0.49215205095291714
60.33999999999624         0.5224851086923038
60.35999999999627         0.5386220329402674
60.37999999999627         0.5433044655966991
60.399999999996254        0.5385424234479071
60.419999999996264        0.5223261026466217
60.43999999999621         0.4919165017807769
60.45999999999617         0.44982020971863923
60.479999999996124        0.4026683752933772
60.4999999999961          0.35931583195936784
60.51999999999608         0.3237428453256316
60.53999999999606         0.2960566373970561
60.55999999999605         0.27520394236677614
60.57999999999605         0.26008886268233605
60.599999999996044        0.24985359577691957
60.61999999999601         0.24391082423457647
60.63999999999603         0.24192210630884167
60.65999999999602         0.2437761810475128
60.67999999999601         0.24958244730701995
60.69999999999602         0.2596732351885242
60.719999999996           0.274632420828627
60.73999999999601         0.29531277501657593
60.75999999999598         0.32280429295005253
60.77999999999599         0.3581543322776373
60.799999999996           0.4012538436654403
60.81999999999603         0.44813531522171
60.839999999996074        0.4899768567136915
60.85999999999609         0.5201763100999995
60.87999999999611         0.5362419963928288
60.89999999999611         0.540904400437671
60.91999999999611         0.5361643143018808
60.93999999999609         0.5200227868928855
60.95999999999606         0.48974941617610945
60.97999999999602         0.4478399414614991
60.99999999999597         0.40089550349074715
61.019999999995946        0.35773296508954694
61.03999999999591         0.3223159072562262
61.05999999999589         0.2947512900093084
61.079999999995884        0.27399049366998823
61.09999999999587         0.25894243078823015
61.11999999999587         0.24875307118782464
61.139999999995865        0.2428376927197173
61.15999999999586         0.2408593661305324
61.17999999999585         0.24270735580996244
61.199999999995846        0.2484890574032058
61.21999999999584         0.2585401227921624
61.23999999999583         0.27343723565546413
61.259999999995834        0.2940311161654924
61.27999999999582         0.3214071262950279
61.29999999999583         0.3566081285750568
61.31999999999584         0.3995253797418309
61.33999999999586         0.44620784158717
61.35999999999591         0.4878708197947225
61.379999999995924        0.5179409668281781
61.399999999995934        0.5339376588201407
61.419999999995945        0.5385804356195294
61.43999999999594         0.5338617408485092
61.45999999999592         0.5177341522648294
61.4799999999959          0.4875279831985045
61.49999999999586         0.44591977176236
61.51999999999582         0.3991766530999435
61.539999999995786        0.3561989075328744
61.55999999999577         0.32093353762638954
61.57999999999574         0.29348718662030915
61.59999999999573         0.2728157742159588
61.61999999999572         0.2578329112201579
61.63999999999571         0.2476882501838173
61.65999999999571         0.24179960599178765
61.6799999999957          0.23983153038062216
61.69999999999568         0.2416738075605515
61.719999999995686        0.24743343138979446
61.739999999995675        0.25744266013389544
61.75999999999567         0.2722819018080683
61.77999999999567         0.2927922690182192
61.79999999999566         0.32005667497039514
61.819999999995666        0.35511365877758017
61.839999999995676        0.3978547903553965
61.85999999999571         0.4443449554718569
61.87999999999576         0.48583541345579906
61.89999999999578         0.5157806536948587
61.9199999999958          0.5317107313510221
61.93999999999579         0.5363346022384176
61.959999999995794        0.5316366474631369
61.979999999995776        0.5155777144256213
61.999999999995744        0.48549862249095754
62.019999999995704        0.4440592216350701
62.039999999995665        0.3975159683456751
62.05999999999562         0.3547168418965527
62.07999999999561         0.31959810257760846
62.099999999995575        0.292266092598146
62.119999999995585        0.27168111326779953
62.13999999999556         0.25676130706624395
62.15999999999555         0.2466598808218149
62.17999999999553         0.24079710170393492
62.19999999999554         0.23883896020579246
62.21999999999554         0.24067574633755812
62.23999999999553         0.24641406476342892
62.25999999999553         0.25638486518106063
62.27999999999552         0.27116516938181784
62.299999999995514        0.2916003788627063
62.31999999999551         0.3187524909441964