% Model:              Untitled.mph
% Version:            COMSOL 5.6.0.280
% Date:               Sep 28 2021, 20:53
% Dimension:          1
% Nodes:              1015
% Expressions:        1
% Description:        线图
% cln2x                   Height
21.52                     0.23175717599374626
21.539999999999992        0.23355003082008108
21.55999999999999         0.23905560200363948
21.58                     0.24859384362819972
21.599999999999994        0.26273011289875736
21.61999999999999         0.2822860386710263
21.639999999999986        0.3083174554003852
21.65999999999999         0.341843018095926
21.679999999999996        0.3827504513052898
21.700000000000003        0.4271935063349187
21.719999999999995        0.46685290168851173
21.739999999999995        0.4956439684599183
21.759999999999994        0.5110056730984324
21.779999999999998        0.5154879824193007
21.799999999999986        0.5110460969217154
21.819999999999983        0.4957759321278075
21.839999999999993        0.4669646482023884
21.859999999999996        0.4273327472853304
21.879999999999995        0.3829101410932892
21.89999999999999         0.34201943591881356
21.91999999999999         0.3085098777792698
21.939999999999998        0.2824950642977073
21.95999999999999         0.2629566661591394
21.97999999999999         0.24883877498491178
21.999999999999993        0.23931806874808048
22.02                     0.23383256793635793
22.039999999999992        0.23205969652183697
22.059999999999995        0.23389508646097884
22.07999999999999         0.23944473157887253
22.099999999999987        0.24903270108586353
22.119999999999994        0.26322088806495636
22.139999999999986        0.2828393167319777
22.15999999999999         0.30894474954272394
22.179999999999993        0.3425583741613882
22.199999999999992        0.38356768062826424
22.219999999999988        0.4281177162240869
22.239999999999984        0.46787076720116216
22.259999999999984        0.49672923313090156
22.279999999999983        0.5121269782981945
22.299999999999986        0.5166201716137732
22.31999999999999         0.5121688746276951
22.33999999999999         0.49686526559428573
22.359999999999992        0.4681064275933511
22.379999999999992        0.42827777001636175
22.399999999999988        0.3837538626115925
22.419999999999987        0.3427749856600164
22.43999999999999         0.30919360489421815
22.459999999999983        0.2831234942377782
22.479999999999986        0.26354407862156354
22.499999999999986        0.24939713899682983
22.51999999999998         0.2398575648157086
22.539999999999992        0.23436217279840194
22.559999999999988        0.23258771930559669
22.579999999999984        0.23442965960794107
22.599999999999984        0.2399942869925505
22.619999999999987        0.2496064668409046
22.639999999999986        0.2638304777507217
22.65999999999998         0.28349516690253906
22.67999999999998         0.3096629079880549
22.699999999999985        0.343356238135308
22.719999999999978        0.38446244120293793
22.739999999999988        0.42911776989436085
22.759999999999977        0.4689652499235871
22.779999999999976        0.49789276928642473
22.799999999999976        0.5133280402752116
22.819999999999975        0.5178329103336031
22.83999999999998         0.5133719790547758
22.859999999999978        0.49803310688008756
22.879999999999978        0.46920757229758314
22.899999999999984        0.4292865138626674
22.919999999999977        0.3845853690589903
22.93999999999997         0.3435863595977747
22.959999999999976        0.3099280125895661
22.979999999999976        0.2837986074990984
22.99999999999998         0.26417519587886684
23.019999999999975        0.24999709142627616
23.039999999999974        0.24043726587755115
23.05999999999997         0.2349312455363504
23.079999999999977        0.233155072423094
23.099999999999973        0.23500401439146557
23.119999999999976        0.24058468863499677
23.139999999999972        0.25022281858709
23.15999999999997         0.2644841300105618
23.17999999999997         0.284195350209159
23.19999999999997         0.31041382633115633
23.21999999999997         0.34421313499706535
23.239999999999977        0.3854234610117796
23.259999999999977        0.43019196389447023
23.27999999999997         0.4701409418727609
23.29999999999997         0.4991427335944454
23.319999999999965        0.5146184277653896
23.339999999999964        0.519135999743317
23.35999999999997         0.5146648978614734
23.379999999999967        0.49928829731877367
23.399999999999967        0.4703912040040388
23.419999999999966        0.430370886242531
23.439999999999973        0.38555886326391126
23.459999999999965        0.3444052463435589
23.479999999999972        0.3107172982564573
23.499999999999964        0.2845240056925917
23.519999999999964        0.2648531300178324
23.53999999999996         0.2506413441295308
23.559999999999967        0.2410595567991043
23.579999999999966        0.23554190261227784
23.599999999999962        0.2337636515985059
23.619999999999965        0.23561986584726566
23.639999999999958        0.24121750595779665
23.659999999999965        0.25088321242454686
23.679999999999968        0.26518426081864294
23.69999999999996         0.28494962075253005
23.719999999999956        0.311239497788369
23.73999999999996         0.34507706146868466
23.75999999999996         0.3864520668319953
23.779999999999955        0.431341577471607
23.799999999999965        0.47139893416881573
23.819999999999954        0.5004799262089723
23.839999999999957        0.5159985564504517
23.85999999999996         0.5205293880181117
23.87999999999996         0.516046953378839
23.899999999999952        0.5006293909280425
23.919999999999956        0.47165525876267156
23.939999999999962        0.43152849025924117
23.959999999999955        0.3865980395381779
23.979999999999958        0.3453361721386752
23.99999999999995         0.3115395046156411
24.01999999999995         0.285294166931253
24.03999999999995         0.2655767175286824
24.05999999999995         0.2513287889642575
24.079999999999952        0.24172333794596912
24.099999999999948        0.23619301387540242
24.11999999999995         0.23441225885899145
24.139999999999954        0.23627590876027263
24.159999999999958        0.24189128042777583
24.179999999999954        0.25158597807863
24.19999999999995         0.26592890991131846
24.219999999999953        0.28575140818372374
24.239999999999945        0.312116688823751
24.25999999999995         0.3460508396207594
24.279999999999944        0.3874689453824032
24.299999999999944        0.4325613996468869
24.31999999999994         0.4727340927309887
24.339999999999954        0.5018997242893044
24.359999999999946        0.5174647034789129
24.379999999999946        0.5220103593378087
24.39999999999995         0.5175167642337329
24.419999999999945        0.5020567659732983
24.43999999999994         0.4730015932378031
24.459999999999944        0.43276205710451615
24.479999999999936        0.38770519112241936
24.499999999999943        0.3463273919192983
24.519999999999946        0.31243608836469644
24.53999999999994         0.2861176526629209
24.559999999999935        0.2663467995673099
24.579999999999934        0.2520590023171
24.599999999999937        0.2424280606626376
24.619999999999933        0.23688396308999532
24.639999999999933        0.2351002528626081
24.659999999999936        0.23697151206706618
24.679999999999932        0.2426054267435476
24.699999999999942        0.2523306184635639
24.71999999999994         0.266717726267479
24.739999999999938        0.28660059298997276
24.759999999999934        0.31304563850587824
24.779999999999934        0.34708205666412184
24.799999999999933        0.3886247700316748
24.819999999999933        0.4338580477818913
24.839999999999936        0.4742639265445299
24.859999999999943        0.5034017858326554
24.879999999999942        0.5190150327741818
24.899999999999938        0.5235757054184579
24.91999999999993         0.5190696565782565
24.939999999999934        0.5035640713286923
24.95999999999993         0.474422667227117
24.979999999999936        0.4340636279503145
24.99999999999993         0.38887332852063855
25.01999999999993         0.34737334814315285
25.03999999999993         0.3133822981771906
25.059999999999935        0.2869867665649326
25.079999999999927        0.26715841514863437
25.09999999999993         0.2528315413493277
25.11999999999993         0.2431716114993934
25.13999999999993         0.23761283979657497
25.15999999999993         0.23582585227383307
25.17999999999993         0.23770496062150687
25.19999999999993         0.24335823662025566
25.219999999999935        0.2531153698711518
25.23999999999993         0.26754881795073804
25.259999999999923        0.2874950618665209
25.27999999999993         0.31402388796950176
25.299999999999926        0.3481677523068995
25.31999999999993         0.38984140671400747
25.339999999999925        0.43521742954042586
25.35999999999992         0.47575146986832856
25.379999999999928        0.5050375129236562
25.39999999999993         0.5206464103898222
25.41999999999993         0.5252226762767962
25.439999999999923        0.5207031025042526
25.459999999999923        0.5051489531896586
25.479999999999915        0.475916318734435
25.499999999999922        0.4354312646890178
25.51999999999993         0.39010074225620683
25.539999999999925        0.34847254260744553
25.55999999999992         0.31437682220668683
25.579999999999927        0.2879003603325323
25.599999999999923        0.26801161929209893
25.61999999999992         0.2536416017560775
25.639999999999922        0.24395473397174403
25.65999999999992         0.23837972197619045
25.679999999999918        0.23658843992351963
25.699999999999918        0.2384756979245321
25.719999999999914        0.24414920250837804
25.739999999999913        0.25393976063431223
25.75999999999992         0.26842173348246157
25.77999999999992         0.28843436327735095
25.799999999999923        0.31505095830778074
25.819999999999915        0.34930738614623386
25.83999999999991         0.39111823106550525
25.859999999999914        0.4366439093713902
25.879999999999914        0.4773125247187955
25.899999999999913        0.5066966778251805
25.91999999999991         0.5223596974469505
25.939999999999916        0.526951985757898
25.959999999999916        0.522418884985882
25.979999999999908        0.5068146983725169
25.999999999999908        0.47748704078808424
26.01999999999991         0.4368700535439758
26.0399999999999          0.39139186164059214
26.059999999999903        0.3496283074972081
26.079999999999906        0.31542207665701194
26.099999999999913        0.28886020511326516
26.119999999999916        0.2689077502484243
26.139999999999905        0.254492199944203
26.15999999999991         0.24477525878031137
26.179999999999907        0.23918379652062446
26.19999999999991         0.23738864340111898
26.219999999999906        0.2392842880470905
26.23999999999991         0.24497885567097497
26.25999999999991         0.2548043123129616
26.279999999999905        0.2693370069092411
26.29999999999991         0.28941906776117793
26.319999999999904        0.31612748474007285
26.339999999999893        0.35050168943576554
26.359999999999907        0.39245609044822605
26.379999999999903        0.4381384113925774
26.399999999999906        0.4789479598737846
26.419999999999902        0.5084348668818147
26.439999999999905        0.5241537367617811
26.4599999999999          0.5287634297875783
26.479999999999908        0.5242149024710824
26.4999999999999          0.5085584345177877
26.5199999999999          0.47913072139240676
26.5399999999999          0.4383752596611209
26.559999999999896        0.392742589028777
26.579999999999895        0.3508376300446107
26.599999999999895        0.31651595694196144
26.619999999999894        0.2898648387680335
26.639999999999894        0.26984578843755935
26.659999999999904        0.2553826321582951
26.679999999999897        0.24563422747517225
26.69999999999989         0.24002552930410004
26.719999999999892        0.23822629232791556
26.739999999999895        0.2401299246275989
26.759999999999895        0.245847278224478
26.779999999999898        0.255709246404216
26.79999999999989         0.27029503401402905
26.81999999999989         0.2904498060590237
26.839999999999897        0.31725442804539356
26.859999999999893        0.35175207986378804
26.879999999999896        0.39385694281110284
26.89999999999989         0.4397032054234973
26.91999999999989         0.48065972274266494
26.93999999999989         0.5102534065219959
26.95999999999989         0.5260298532744069
26.97999999999989         0.5306569909468957
26.9999999999999          0.5260924929674796
27.019999999999893        0.5103240048395893
27.03999999999989         0.4808470021698236
27.059999999999892        0.43994651335423846
27.079999999999885        0.3941525601966465
27.099999999999884        0.3521001458913643
27.119999999999884        0.317658086109702
27.13999999999989         0.2909138583249569
27.159999999999886        0.27082529160348884
27.179999999999886        0.25631240634262575
27.19999999999989         0.24653109094093212
27.219999999999878        0.24090429163877822
27.239999999999878        0.23910064608356493
27.259999999999877        0.24101323812703873
27.279999999999884        0.24675184561985516
27.299999999999887        0.25665120268690084
27.31999999999988         0.2712940750306229
27.339999999999872        0.2915243199925777
27.35999999999989         0.31842879797914636
27.379999999999885        0.3530545603032881
27.399999999999878        0.3953156029170124
27.419999999999877        0.441332353944333
27.439999999999884        0.4824423681461426
27.45999999999988         0.5121480130449741
27.47999999999988         0.527985361033587
27.49999999999988         0.5326314950103423
27.519999999999882        0.5280512459751368
27.53999999999989         0.5122250675174641
27.55999999999988         0.482520615473554
27.579999999999874        0.4415882147397129
27.599999999999874        0.3956256317264904
27.619999999999877        0.3534186728467506
27.639999999999876        0.31885040594651853
27.659999999999876        0.2920085970487393
27.67999999999987         0.271847191403429
27.699999999999875        0.2572821949906719
27.719999999999878        0.24746636665410054
27.739999999999874        0.24182052705384668
27.759999999999874        0.24001212370418806
27.779999999999873        0.2419339023715718
27.799999999999876        0.24769610688073143
27.819999999999872        0.25763478426286274
27.839999999999872        0.2723338815337714
27.85999999999987         0.29264374476643557
27.87999999999987         0.31965218517492394
27.89999999999987         0.35441136823578767
27.91999999999987         0.3968350803880539
27.939999999999873        0.44302930514948335
27.95999999999987         0.48429885297131564
27.97999999999987         0.5141206614475518
27.999999999999872        0.5300209235602907
28.019999999999868        0.5346863325665328
28.039999999999868        0.5300890727056531
28.059999999999867        0.514202088584928
28.079999999999874        0.4843835984932874
28.099999999999866        0.4432893208756244
28.119999999999862        0.3972332513040498
28.139999999999862        0.35478922399181306
28.15999999999986         0.3200899779240267
28.179999999999865        0.29314685075681823
28.19999999999986         0.272909777562303
28.219999999999864        0.25829061672739073
28.23999999999986         0.2484388907685755
28.259999999999863        0.24277321830085494
28.279999999999863        0.24095980416022378
28.299999999999855        0.2428910399470083
28.319999999999865        0.24867766584773074
28.33999999999986         0.2586570989940524
28.359999999999864        0.2734156294977748
28.379999999999864        0.29381135860858315
28.399999999999856        0.3209233530213091
28.419999999999856        0.3558210562619251
28.43999999999987         0.3984136793919696
28.459999999999866        0.4447921563450143
28.479999999999862        0.48622722629864706
28.499999999999858        0.5161694721050828
28.519999999999865        0.5321348567344344
28.539999999999864        0.5368201177452059
28.559999999999864        0.5322050685483378
28.579999999999856        0.5162548339264753
28.599999999999856        0.4863178420834278
28.619999999999862        0.4450606731070574
28.639999999999855        0.39882294550914105
28.65999999999985         0.3562671391230937
28.679999999999847        0.32137686084224376
28.699999999999854        0.2943285123371227
28.71999999999985         0.27401283559047185
28.73999999999985         0.2593373854212122
28.75999999999985         0.24944832503759184
28.77999999999985         0.24376198742695984
28.799999999999855        0.2419432829263647
28.819999999999848        0.24388422186455835
28.839999999999847        0.24969605462013533
28.859999999999843        0.25971762535923043
28.87999999999985         0.2745376539036388
28.899999999999846        0.29501777572233445
28.91999999999985         0.32226261733135353
28.939999999999845        0.35733780763288275
28.959999999999845        0.4000502511648798
28.97999999999986         0.44661960975369464
28.99999999999985         0.4882261635205038
29.019999999999854        0.5182931690694736
29.039999999999853        0.5343259918941419
29.059999999999853        0.5390317829986673
29.07999999999985         0.5343982585915205
29.09999999999984         0.5183824375217714
29.11999999999985         0.488322598798379
29.139999999999855        0.4468965845238113
29.159999999999854        0.4004705680327475
29.179999999999847        0.35774209568284554
29.19999999999984         0.3227318169049678
29.219999999999843        0.2955532421300765
29.23999999999984         0.27515607540966736
29.259999999999835        0.2604222503624702
29.279999999999845        0.25049444847843316
29.29999999999984         0.244786632931413
29.319999999999837        0.24296237164833043
29.339999999999844        0.24491327460468845
29.35999999999984         0.25075110747779816
29.379999999999836        0.26081618727890915
29.39999999999984         0.2756997520246754
29.419999999999835        0.2962670920350923
29.43999999999984         0.3236275076246795
29.45999999999983         0.35885116280383994
29.479999999999833        0.4018217828298488
29.49999999999985         0.4485110964848209
29.519999999999847        0.49029509036352975
29.53999999999984         0.5204912054057179
29.55999999999983         0.5365938083003667
29.57999999999984         0.5413207297703165
29.599999999999838        0.5366677796623018
29.619999999999834        0.5205836200058852
29.639999999999834        0.4903962696087314
29.659999999999833        0.44879531179225957
29.67999999999982         0.40217462044261404
29.699999999999832        0.35926780857744695
29.719999999999825        0.32411184570920604
29.739999999999828        0.29682494367127105
29.759999999999827        0.27633809311370267
29.77999999999983         0.26154504776201026
29.79999999999983         0.25157720322192506
29.81999999999983         0.24584717724157767
29.839999999999826        0.244017152424609
29.859999999999832        0.24597832617508977
29.879999999999832        0.2518429942562266
29.899999999999817        0.26195298597691985
29.91999999999982         0.2769021325789763
29.93999999999982         0.29755949732067394
29.95999999999983         0.3250392064334074
29.97999999999983         0.3604161007799761
29.999999999999822        0.40357359065254356
30.01999999999983         0.450461498983339
30.03999999999984         0.4923133837602886
30.059999999999828        0.5227642305626717
30.079999999999828        0.538939521543883
30.099999999999824        0.5436888336142511
30.119999999999827        0.5390164679528687
30.139999999999826        0.5228624885755235
30.159999999999823        0.4925439131139946
30.17999999999981         0.4507623565435722
30.199999999999815        0.4039399452504315
30.21999999999982         0.36084804369311807
30.239999999999817        0.3255408831304785
30.259999999999813        0.29813705313058125
30.279999999999813        0.277562855429913
30.299999999999812        0.2627051977181295
30.319999999999816        0.25269784420652946
30.339999999999815        0.24694474064051197
30.359999999999815        0.2451086712002488
30.379999999999814        0.24708040097588835
30.39999999999982         0.25297277270658053
30.419999999999817        0.2631291823116999
30.439999999999817        0.27814614982215796
30.45999999999982         0.29889665573739843
30.47999999999982         0.32649984108521707
30.499999999999815        0.36203540469429546
30.51999999999981         0.40538638717746667
30.53999999999981         0.45248492571390836
30.55999999999981         0.49452576939472515
30.579999999999814        0.5250576853265988
30.599999999999813        0.541364441181105
30.61999999999981         0.5461360021305564
30.63999999999981         0.54144241554017
30.659999999999815        0.5252148162128091
30.679999999999808        0.49475949462963553
30.699999999999804        0.4527907063804068
30.719999999999803        0.4057603765779584
30.739999999999807        0.362478183089765
30.759999999999817        0.3270156138614701
30.77999999999981         0.29949155465228927
30.799999999999805        0.2788274905694297
30.819999999999812        0.2639054083623463
30.839999999999808        0.25385368094897937
30.8599999999998          0.2480783615385974
30.879999999999804        0.24623603879665237
30.899999999999803        0.24821861410774998
30.919999999999806        0.2541394954110719
30.939999999999813        0.26434369177527706
30.95999999999981         0.2794304899548657
30.979999999999805        0.3002768982332035
30.999999999999805        0.32800721008793216
31.019999999999804        0.3637061172675971
31.039999999999807        0.4072563228418782
31.059999999999803        0.4545719694532327
31.079999999999806        0.4968080717539584
31.099999999999813        0.5274829454297086
31.11999999999981         0.5438665930503971
31.139999999999798        0.5486627385157529
31.1599999999998          0.5439483001679507
31.1799999999998          0.527646056769015
31.199999999999797        0.4970506164785594
31.2199999999998          0.45488909651619314
31.23999999999979         0.4076435681889689
31.25999999999981         0.36416393987772333
31.279999999999795        0.3285400950963266
31.29999999999981         0.30089132608962665
31.319999999999787        0.28013408064603607
31.33999999999979         0.2651451779051476
31.35999999999979         0.2550490044864463
31.379999999999797        0.24924810726500596
31.399999999999803        0.24739992340280798
31.419999999999796        0.24939350218999704
31.439999999999795        0.25534361321346355
31.459999999999795        0.2655969254913048
31.4799999999998          0.28075557261926254
31.499999999999787        0.3017007116547637
31.51999999999979         0.32956194604016903
31.53999999999979         0.36542911445756937
31.559999999999796        0.40918457304382955
31.579999999999796        0.456723915889906
31.59999999999979         0.4991611958540902
31.619999999999788        0.5299833287655349
31.639999999999787        0.5464468994707127
31.659999999999794        0.5512671889004456
31.67999999999978         0.5465314751440791
31.699999999999783        0.5301505266522991
31.719999999999782        0.4994098981135988
31.739999999999796        0.45704930158469975
31.75999999999978         0.40958230629266307
31.77999999999978         0.3658998213072496
31.79999999999978         0.33011029376562173
31.81999999999978         0.30233337568991486
31.83999999999978         0.2814803636226839
31.85999999999978         0.2664227642937549
31.879999999999768        0.2562808692236838
31.899999999999768        0.2504544577178409
31.919999999999774        0.24859939460454547
31.939999999999767        0.2506050477065781
31.959999999999773        0.25658439021510066
31.97999999999978         0.26688818804887804
31.99999999999978         0.2821207061387235
32.019999999999776        0.3031673681705552
32.039999999999786        0.3311632369931351
32.059999999999775        0.3672034436665104
32.07999999999978         0.4111700063161758
32.09999999999978         0.45893952718239145
32.11999999999978         0.5015840123109436
32.13999999999979         0.5325579431458045
32.15999999999978         0.5491040479990331
32.17999999999979         0.5539494413199783
32.199999999999775        0.5491911106929258
32.21999999999978         0.5327884532748939
32.23999999999978         0.501840180355082
32.25999999999977         0.45927467351519086
32.279999999999774        0.4115795415031632
32.29999999999977         0.36768801655738476
32.31999999999977         0.3317277515415968
32.33999999999977         0.30381878553961744
32.35999999999977         0.282867111648559
32.37999999999977         0.2677387503782245
32.399999999999764        0.25754973768130807
32.41999999999976         0.25169699515184346
32.43999999999976         0.24983477234215523
32.459999999999766        0.25185194833256697
32.47999999999977         0.25786368790661807
32.499999999999766        0.2682198205878585
32.51999999999977         0.2835261592509128
32.539999999999765        0.3046771558651868
32.55999999999977         0.33281140660679936
32.57999999999978         0.369029484694217
32.599999999999774        0.41321307322014506
32.619999999999784        0.4612192953326397
32.63999999999977         0.504076973234863
32.659999999999776        0.5352071649623653
32.67999999999978         0.5518382846741613
32.699999999999775        0.5567095156892234
32.71999999999978         0.5519277985976173
32.73999999999977         0.5354429261619069
32.75999999999978         0.5044645100311246
32.779999999999745        0.46156428849323117
32.79999999999976         0.41363471601337576
32.81999999999976         0.36952852307376466
32.83999999999976         0.33339300801463345
32.859999999999765        0.3053485793629749
32.87999999999976         0.2842957842882133
32.899999999999764        0.26909501781303086
32.91999999999975         0.25885792333798696
32.93999999999975         0.2529784688751813
32.95999999999975         0.2511092544539284
32.979999999999784        0.2531386722801994
32.999999999999766        0.25918252566818983
33.019999999999754        0.26959245903941575
33.03999999999976         0.28497851488769876
33.059999999999754        0.306236321284382
33.07999999999976         0.33451364180680315
33.09999999999976         0.37091554311236724
33.11999999999976         0.4153233611293154
33.13999999999976         0.4635741090948528
33.15999999999977         0.5066520384308885
33.17999999999975         0.5379436952909544
33.199999999999754        0.5546626649365682
33.21999999999976         0.5595605206179515
33.23999999999976         0.5547544243061256
33.25999999999975         0.5381843082506751
33.27999999999975         0.5070471697725154
33.29999999999974         0.46393376562661814
33.31999999999975         0.4156773067281411
33.33999999999976         0.3714303224145392
33.35999999999975         0.3351145098888197
33.37999999999975         0.30693083610207056
33.39999999999975         0.2857742334513566
33.41999999999975         0.2704993161816511
33.43999999999974         0.2602132097240377
33.459999999999745        0.2543068146325626
33.47999999999974         0.2524310336963612
33.49999999999974         0.2544737811419475
33.51999999999974         0.2605515474613428
33.53999999999975         0.27101788279302624
33.55999999999975         0.28648607902859347
33.579999999999735        0.3078519439306329
33.599999999999746        0.33628297200006096
33.61999999999974         0.37287641108287883
33.639999999999745        0.41751777259347744
33.65999999999975         0.4660230086463114
33.679999999999744        0.5093298606096723
33.69999999999977         0.5407891806864003
33.71999999999974         0.5575991839350202
33.739999999999746        0.5625245094382889
33.75999999999974         0.5576929625449353
33.77999999999975         0.5410341972951853
33.79999999999974         0.5097321114568125
33.819999999999744        0.4663920005022058
33.83999999999974         0.4178841691450827
33.85999999999974         0.3733505183483225
33.87999999999975         0.33690511553057356
33.899999999999736        0.30857693971242245
33.91999999999974         0.2873126614311744
33.939999999999735        0.27196089295904496
33.95999999999974         0.26162408213987015
33.979999999999734        0.2556899304745892
33.99999999999973         0.25380755092665314
34.01999999999973         0.2558643622707396
34.03999999999972         0.26197757735875876
34.05999999999975         0.2725027314144263
34.079999999999735        0.28805649446486964
34.09999999999973         0.3095395719519041
34.11999999999974         0.33810369326968986
34.13999999999974         0.37486071492337575
34.15999999999974         0.41980275843624304
34.17999999999974         0.4685729351927706
34.19999999999974         0.5121186307080716
34.21999999999974         0.54375319758699
34.23999999999975         0.5606587080952551
34.25999999999974         0.5656130663345635
34.27999999999974         0.5607551211302131
34.299999999999734        0.5440039328736582
34.31999999999973         0.5125299028260094
34.339999999999726        0.4689535488432928
34.35999999999972         0.4201839188457853
34.379999999999725        0.3754114509505431
34.39999999999972         0.3387493324230997
34.41999999999973         0.3102928854462101
34.43999999999972         0.2889165116084779
34.459999999999724        0.2734847351829765
34.47999999999973         0.2630951488296548
34.499999999999716        0.25713214104565263
34.51999999999972         0.255242933116729
34.53999999999972         0.25731440601114497
34.55999999999972         0.2634645254883058
34.57999999999973         0.2740508949036969
34.59999999999974         0.2896936967213586
34.61999999999972         0.3112987243442048