% Model:              Untitled.mph
% Version:            COMSOL 5.6.0.280
% Date:               Sep 28 2021, 20:55
% Dimension:          1
% Nodes:              994
% Expressions:        1
% Description:        线图
% cln2x                   Height
21.91                     0.21981696082150481
21.920000000000027        0.22009166984143724
21.94000000000003         0.22243378020334353
21.96000000000003         0.22727513207357708
21.980000000000036        0.23485852423209488
22.00000000000004         0.24557312477170615
22.020000000000042        0.2599842479292425
22.040000000000045        0.278871460768077
22.060000000000045        0.30326162422492653
22.080000000000048        0.33440091530551797
22.100000000000048        0.3734620563184873
22.12000000000006         0.4204554400058551
22.140000000000054        0.4709434730690645
22.16000000000005         0.5157718596114546
22.180000000000042        0.548244778413066
22.20000000000005         0.5655781280378656
22.22000000000005         0.570639973915099
22.240000000000055        0.5656213187595011
22.260000000000062        0.5483893409768014
22.280000000000076        0.5160209210277497
22.300000000000065        0.4710919069396594
22.320000000000068        0.42052730478647576
22.340000000000067        0.37362985145663347
22.360000000000074        0.33457573968545773
22.38000000000007         0.30344248937381324
22.40000000000007         0.27905696910114797
22.420000000000076        0.2601729242589931
22.440000000000087        0.245765432129846
22.46000000000009         0.23505295194234596
22.480000000000093        0.22746903919464673
22.500000000000092        0.22262363601610122
22.520000000000092        0.22027302790140055
22.54000000000009         0.22030036608030593
22.560000000000088        0.22270622794234368
22.58000000000009         0.22760864799748753
22.6000000000001          0.23525260864045355
22.620000000000104        0.24602952230888364
22.640000000000107        0.26050714179015083
22.6600000000001          0.279466997776204
22.680000000000106        0.3039475273008868
22.700000000000113        0.3352035086853185
22.720000000000105        0.37441678278613616
22.74000000000011         0.4214777861703374
22.76000000000011         0.47210270331831256
22.78000000000011         0.5170512365503954
22.800000000000107        0.5496109781937704
22.820000000000107        0.5669912382699961
22.840000000000114        0.5720673385408728
22.860000000000113        0.5670362282940907
22.880000000000116        0.549760543414588
22.900000000000134        0.5173110279915791
22.920000000000126        0.4722705504040441
22.940000000000126        0.4216687033086504
22.96000000000013         0.37463389892841387
22.98000000000013         0.3354472012101291
23.00000000000013         0.3042196144837639
23.020000000000127        0.27976988067806524
23.040000000000138        0.2608411724811324
23.060000000000144        0.24640003951571782
23.080000000000144        0.23566301267590345
23.100000000000147        0.2280622575948118
23.12000000000015         0.2232067706274112
23.14000000000015         0.22085226010069384
23.160000000000156        0.22088162034462397
23.180000000000152        0.22329546963586167
23.200000000000156        0.22821218307043373
23.220000000000166        0.23587590149883605
23.24000000000016         0.24668150820450874
23.26000000000016         0.26119772372989114
23.28000000000016         0.2802102872346713
23.30000000000017         0.30475552902526204
23.320000000000174        0.33609384219901917
23.340000000000163        0.37541020664279784
23.36000000000017         0.4225949840093794
23.380000000000173        0.47335382883373206
23.400000000000166        0.5184228818425132
23.42000000000017         0.5510711445776371
23.44000000000017         0.5685000175331493
23.460000000000164        0.5735912751950635
23.48000000000017         0.5685466190543322
23.500000000000178        0.5511633075143525
23.520000000000184        0.5185574700779604
23.54000000000019         0.47352531067030895
23.56000000000019         0.4227972701726193
23.58000000000019         0.37564069094061775
23.60000000000019         0.336353057281875
23.6200000000002          0.30504547626321593
23.640000000000196        0.2805335394441613
23.6600000000002          0.26155711441693624
23.680000000000213        0.24708005223516724
23.70000000000021         0.23631682843694898
23.72000000000021         0.22869811791049038
23.74000000000021         0.22383190283407842
23.760000000000208        0.22147343904359934
23.780000000000207        0.22150469511228674
23.80000000000021         0.22392679215101072
23.820000000000213        0.22885841664222614
23.84000000000023         0.236545909511625
23.860000000000216        0.2473829367521548
23.880000000000223        0.2619407951857755
23.900000000000222        0.2810074572199716
23.920000000000222        0.30562219680621155
23.940000000000232        0.3370489938362555
23.960000000000235        0.37647623869116026
23.98000000000023         0.4237941833967623
24.000000000000234        0.4746969010169716
24.020000000000227        0.5198949317729664
24.040000000000223        0.5526999879396356
24.060000000000223        0.570118958450149
24.08000000000023         0.5752255833591524
24.100000000000225        0.5701672265991867
24.120000000000232        0.5527345912369398
24.14000000000024         0.5200365917733736
24.160000000000245        0.4748777499844476
24.180000000000245        0.4240082450760636
24.200000000000255        0.3767209898663668
24.22000000000026         0.3373250015272429
24.240000000000254        0.3059315168595361
24.26000000000026         0.2813527486810225
24.280000000000264        0.2623250112724148
24.300000000000278        0.24781137835756323
24.320000000000267        0.23701930758451098
24.340000000000266        0.22938061965603596
24.36000000000027         0.22450228117081963
24.380000000000273        0.22213868696314867
24.400000000000272        0.2221721022970256
24.42000000000027         0.22460317294231313
24.440000000000264        0.22955097280991918
24.46000000000029         0.23726260494942486
24.48000000000028         0.24813293306659592
24.50000000000028         0.26273497998115214
24.520000000000284        0.2818590915761084
24.540000000000287        0.30654766952085505
24.56000000000029         0.33806850362473534
24.58000000000029         0.3775496646024747
24.60000000000029         0.4249858167794907
24.620000000000292        0.47613478789237923
24.640000000000292        0.5215979865479098
24.660000000000288        0.5543714462902571
24.680000000000287        0.571845854747563
24.700000000000294        0.5769699060953963
24.720000000000294        0.571897003442075
24.74000000000029         0.554411615190117
24.760000000000296        0.5216151305841956
24.780000000000307        0.47632099501328945
24.80000000000031         0.42530053950916863
24.82000000000031         0.37787388653467274
24.840000000000312        0.3383622942795453
24.860000000000316        0.30687108955009684
24.88000000000032         0.2822278177316526
24.90000000000032         0.26314677861418195
24.92000000000032         0.24858942510066379
24.94000000000033         0.23776707258713548
24.960000000000328        0.2301075213331953
24.98000000000033         0.22521656697260778
25.000000000000327        0.2228478855728002
25.020000000000344        0.22288341932060282
25.040000000000333        0.22532385662690294
25.060000000000336        0.2302886810426729
25.080000000000336        0.23802580428851378
25.100000000000342        0.2489313625504142
25.120000000000342        0.26358254696608824
25.14000000000034         0.28276604123797744
25.16000000000034         0.3075260979407251
25.18000000000035         0.3391271192444479
25.200000000000347        0.3787589464742947
25.220000000000343        0.4263454517043494
25.240000000000343        0.477657393440422
25.260000000000346        0.5232671208576798
25.280000000000342        0.5561476447780423
25.300000000000338        0.5736806164682325
25.320000000000338        0.5788229427780335
25.340000000000334        0.5737344516522975
25.36000000000034         0.5561929524457677
25.380000000000347        0.5232918129261325
25.40000000000035         0.47785963328209496
25.420000000000368        0.4265853837419258
25.440000000000364        0.3790341536801788
25.46000000000037         0.3394382544002515
25.480000000000373        0.30787534855151916
25.500000000000377        0.283156266476387
25.520000000000376        0.26401695013309157
25.54000000000038         0.2494155569716038
25.56000000000039         0.23856092727162728
25.580000000000382        0.23087908280603014
25.60000000000038         0.2259745823118035
25.62000000000039         0.22360033135689752
25.640000000000384        0.22363792065021415
25.660000000000387        0.2260880756194735
25.680000000000398        0.23107166736946427
25.700000000000394        0.23883609155520996
25.7200000000004          0.24977925390771807
25.740000000000396        0.2644775163365525
25.7600000000004          0.2837250370326471
25.780000000000403        0.3085674222098199
25.800000000000406        0.34027328735281065
25.82000000000041         0.3800364831287611
25.840000000000412        0.4277809616929433
25.860000000000404        0.47926462843087886
25.880000000000397        0.5250297906275706
25.900000000000404        0.5580244910074036
25.920000000000393        0.5756205437932357
25.940000000000385        0.5807828647799888
25.9600000000004          0.5756788806741995
25.9800000000004          0.5581403185830224
26.00000000000041         0.5251994018854598
26.020000000000408        0.47948100174343966
26.040000000000422        0.4280369375160595
26.06000000000042         0.3803292711486961
26.08000000000043         0.34060368587732387
26.100000000000428        0.30893788774568465
26.120000000000427        0.2841386890561994
26.140000000000434        0.2649377917088707
26.160000000000434        0.2502898636724945
26.180000000000454        0.23940111058867475
26.200000000000443        0.23169567429217208
26.220000000000443        0.22677630394601636
26.240000000000443        0.2243965073797947
26.260000000000446        0.22443658764631702
26.280000000000445        0.22689737341267308
26.30000000000045         0.23189928499696824
26.320000000000448        0.23969201069741744
26.34000000000046         0.2506743624392842
26.360000000000458        0.2654247549436075
26.380000000000457        0.284740170511055
26.400000000000457        0.30966993544310784
26.420000000000456        0.34148718964388675
26.440000000000456        0.38139008429821325
26.460000000000463        0.4293025389192276
26.48000000000046         0.4809681346959641
26.50000000000046         0.5267623024003322
26.520000000000454        0.559947016104141
26.540000000000457        0.5776698471820108
26.560000000000457        0.5828521183923618
26.580000000000457        0.5777289431601776
26.60000000000045         0.5601255422805076
26.62000000000046         0.527066004403341
26.640000000000462        0.48118562797744263
26.660000000000476        0.42956311200300057
26.680000000000483        0.3816917918646928
26.70000000000048         0.34183055291537373
26.720000000000482        0.31005700619011467
26.740000000000485        0.28517380891165955
26.76000000000049         0.2659059184070505
26.78000000000049         0.25120931202731256
26.8000000000005          0.24028525599887884
26.8200000000005          0.23255548901556244
26.840000000000497        0.22762187062013534
26.860000000000497        0.22523570138829896
26.880000000000507        0.22527786812339118
26.900000000000503        0.22774923671101055
26.920000000000503        0.23277069848898346
26.940000000000506        0.24059288275547164
26.96000000000051         0.25161608633353844
26.980000000000512        0.2664208668951029
27.000000000000522        0.2858071539616758
27.02000000000051         0.31082815280749493
27.040000000000518        0.3427876476041973
27.060000000000517        0.38287524627180775
27.080000000000517        0.43098691429482255
27.100000000000517        0.48274885112186194
27.12000000000051         0.5287198718375901
27.140000000000505        0.5620304715970966
27.160000000000508        0.5798225674413295
27.180000000000504        0.5850268113813863
27.20000000000051         0.5798863246279323
27.220000000000514        0.5622188003394859
27.24000000000051         0.5290379488296976
27.260000000000524        0.4829892413472187
27.28000000000053         0.43117770174800946
27.30000000000054         0.38313165984983777
27.32000000000054         0.34315155440906325
27.340000000000543        0.311243275886397
27.36000000000054         0.28626375203490506
27.380000000000543        0.2669279862612054
27.40000000000055         0.25217945530435204
27.420000000000545        0.24121726714503958
27.44000000000055         0.2334610113260525
27.46000000000056         0.22851109056924718
27.480000000000555        0.22611792565160124
27.500000000000558        0.2261619914063209
27.520000000000557        0.2286441775374238
27.540000000000564        0.23368585312039378
27.560000000000556        0.24153861979877747
27.58000000000057         0.2526021711972443
27.600000000000577        0.26746336978228147
27.62000000000057         0.28692504576555483
27.64000000000057         0.312048087310081
27.660000000000572        0.3441227936213878
27.680000000000568        0.3843625847953573
27.70000000000057         0.43265731778314137
27.72000000000057         0.48461787191651434
27.740000000000563        0.5307683084040055
27.76000000000056         0.5642110341214449
27.780000000000555        0.5820759647809434
27.80000000000057         0.5873029279097767
27.820000000000558        0.5821430541711458
27.840000000000565        0.5644063257662806
27.86000000000057         0.5309612705149829
27.880000000000575        0.48486524256437724
27.90000000000058         0.4329513472683634
27.920000000000606        0.3847001210001444
27.940000000000598        0.3445047206098343
27.960000000000594        0.31247713604418126
27.980000000000597        0.2874047039927544
28.0000000000006          0.2679974966095575
28.020000000000607        0.25319493356226314
28.040000000000603        0.24219304811900688
28.060000000000606        0.2344092055677862
28.08000000000062         0.22944228623247137
28.10000000000061         0.22704178464596356
28.12000000000062         0.22708776572998163
28.14000000000062         0.2295806367190751
28.16000000000062         0.23464286070220913
28.180000000000618        0.24252686385217426
28.20000000000062         0.25363617777022784
28.22000000000062         0.2685563456959745
28.24000000000063         0.28809494765649024
28.260000000000627        0.31331710017198683
28.28000000000063         0.34551824408828813
28.30000000000063         0.3859166939196087
28.32000000000063         0.43440232156799047
28.340000000000625        0.4865700435133029
28.36000000000062         0.5329076674643699
28.380000000000614        0.5664882581689716
28.40000000000061         0.5844291821777509
28.42000000000062         0.5896798198379711
28.440000000000616        0.5844987258121146
28.46000000000063         0.5666262610900368
28.480000000000626        0.533110177955335
28.500000000000632        0.48682963146532676
28.520000000000643        0.4347105280409912
28.540000000000646        0.3862701190132289
28.56000000000066         0.3459179189090609
28.58000000000066         0.3137659664930592
28.60000000000066         0.28859667837181113
28.62000000000066         0.2691149875263988
28.640000000000665        0.2542560902948046
28.660000000000668        0.24321281641651937
28.680000000000668        0.23540120146246854
28.700000000000678        0.2304161100989442
28.72000000000067         0.22800758833241763
28.74000000000067         0.22805520410238486
28.760000000000673        0.23055988442172956
28.78000000000068         0.2356439779270387
28.80000000000068         0.24356113647322783
28.820000000000675        0.254716581548485
28.84000000000068         0.26969830533750644
28.860000000000685        0.28931726550217446
28.88000000000069         0.31464303608397487
28.900000000000684        0.3469764890784056
28.920000000000684        0.38754111447547235
28.940000000000683        0.4362266967186531
28.960000000000683        0.48861630884724966
28.980000000000675        0.5352786312484112
29.00000000000067         0.5689295250851324
29.02000000000066         0.5868847499643379
29.040000000000667        0.592158104784459
29.060000000000674        0.5869551189061762
29.08000000000067         0.5690065388758495
29.100000000000676        0.5353497857494249
29.120000000000687        0.48887688688585557
29.140000000000693        0.43654398595032273
29.160000000000704        0.38790654438142064
29.180000000000714        0.3473910835502823
29.200000000000717        0.31510967657154315
29.220000000000713        0.2898404106215155
29.240000000000713        0.27028273708205247
29.26000000000072         0.25536495706535256
29.28000000000072         0.24427795506199348
29.30000000000072         0.23643479585612898
29.32000000000072         0.23143120017456437
29.340000000000735        0.22901463089196716
29.360000000000728        0.2290641815187341
29.380000000000724        0.23158082407839756
29.40000000000073         0.23668747130592221
29.42000000000074         0.24463888252034827
29.440000000000733        0.2558420225990265
29.46000000000074         0.27088740827293695
29.480000000000743        0.29058947694221593
29.50000000000075         0.31601619600507314
29.520000000000742        0.3484662708216101
29.54000000000074         0.38916315718859323
29.560000000000745        0.43803124485387984
29.580000000000744        0.4907350762767447
29.600000000000733        0.5376005707682239
29.620000000000726        0.5714004470576662
29.640000000000718        0.5894375803532537
29.660000000000725        0.5947363467881053
29.680000000000728        0.5895110164262773
29.700000000000728        0.5714833922030439
29.720000000000734        0.5376803303188628
29.740000000000745        0.4910073398596161
29.760000000000748        0.43845206299714634
29.78000000000076         0.389543795696687
29.80000000000078         0.34889808276630563
29.82000000000077         0.31650225763364054
29.840000000000767        0.29113439975468186
29.86000000000077         0.2714960942114993
29.880000000000777        0.2565172718274067
29.900000000000777        0.2453853676325066
29.92000000000078         0.23751094357195543
29.94000000000078         0.23248800252994917
29.960000000000793        0.23006294487286894
29.980000000000786        0.2301143704843308
30.00000000000079         0.23264328667386974
30.02000000000078         0.23777317932452402
30.040000000000788        0.24576153019920627
30.06000000000079         0.2570146130730988
30.080000000000794        0.2721261261819716
30.100000000000797        0.2919127294115401
30.1200000000008          0.31744964713640694
30.140000000000796        0.35004148180708716
30.160000000000796        0.3909163954497174
30.180000000000792        0.43999891926465884
30.200000000000784        0.4929358393883519
30.220000000000784        0.540011766885261
30.240000000000776        0.5739657270325245
30.260000000000776        0.5920873072034232
30.280000000000776        0.5974120469768557
30.300000000000782        0.5921632690190796
30.32000000000079         0.5741182963563176
30.340000000000792        0.5402359191714899
30.3600000000008          0.4932233391751735
30.38000000000081         0.44034146886439085
30.400000000000816        0.3913110224820179
30.42000000000082         0.3504895070819693
30.440000000000833        0.31795427686143696
30.46000000000082         0.29247785609631993
30.480000000000828        0.2727559988193426
30.500000000000835        0.2577138817087009
30.520000000000838        0.24653536622811492
30.540000000000838        0.23862842487465596
30.560000000000834        0.23358527871855347
30.58000000000085         0.23115122339963945
30.600000000000847        0.2312045072113331
30.620000000000836        0.2337462128528364
30.640000000000843        0.23890029652759587
30.660000000000842        0.24692388957937308
30.68000000000085         0.25822758013896085
30.700000000000845        0.2734068025749617
30.72000000000085         0.2932819622062685
30.740000000000858        0.3189332239139869
30.760000000000858        0.3516712162788803
30.780000000000854        0.3927298665931156
30.800000000000853        0.4420338168871358
30.82000000000085         0.4952112018892019
30.840000000000835        0.5425035830576976
30.860000000000838        0.5765507619865647
30.88000000000083         0.5948223551552703
30.90000000000083         0.6001734398610113
30.920000000000837        0.5948997776807505
30.94000000000084         0.5767675030193307
30.960000000000846        0.5427271240335104
30.98000000000086         0.49549908137186405
31.000000000000867        0.4423799933656982
31.02000000000087         0.3931322675102342
31.040000000000877        0.3521309634539076
31.06000000000089         0.3194531680251866
31.080000000000894        0.2938657426970029
31.10000000000088         0.27405849725340775
31.12000000000089         0.2589517175213416
31.14000000000089         0.24772401437059674
31.160000000000895        0.23978447311128875
31.180000000000895        0.23472120890634865
31.20000000000089         0.2322784158877852
31.2200000000009          0.23233371128714633
31.240000000000904        0.23488823507211165
31.260000000000897        0.24006671581398642
31.280000000000904        0.24812749809489312
31.300000000000903        0.25948309470356534
31.320000000000917        0.2747317251116724
31.34000000000091         0.29469762961152535
31.360000000000923        0.32046602289183773
31.38000000000091         0.3533536741012102
31.4000000000009          0.39460039303876815
31.420000000000897        0.44422224349553474
31.440000000000904        0.4975503699222628
31.46000000000089         0.5449345090858893
31.48000000000091         0.5792846422003549
31.500000000000902        0.5976479557097496
31.520000000000902        0.6030280103160974
31.5400000000009          0.5977306516917319
31.5600000000009          0.5795125883360361
31.580000000000894        0.5453118789623402
31.600000000000904        0.4978628874987022
31.620000000000925        0.444497458399419
31.64000000000094         0.3950229037073386
31.660000000000938        0.353833890044153
31.680000000000938        0.32101372695168967
31.700000000000944        0.2953035788325486
31.72000000000094         0.2754059442155215
31.74000000000094         0.26023219101298106
31.760000000000932        0.24895721120797834
31.780000000000953        0.24098313075158617
31.800000000000953        0.23589837402244676
31.820000000000952        0.23344595592887052
31.840000000000952        0.23350294073137137
31.86000000000096         0.23607049952758974
31.880000000000955        0.24127397943479809
31.900000000000954        0.24937298214871623
31.920000000000968        0.26078201887398855
31.940000000000968        0.2761022058531244
31.960000000000974        0.2961609292016684
31.98000000000098         0.3220575235475784
32.00000000000096         0.3551205247143402
32.02000000000096         0.3966022297590973
32.04000000000096         0.4463926351356425
32.060000000000954        0.4999757991641961
32.08000000000094         0.5475895001592522
32.10000000000094         0.5821081801334658
32.12000000000095         0.6005635565341333
32.14000000000093         0.6059713260561022
32.16000000000093         0.6006474300873245
32.18000000000094         0.5823385476572102
32.20000000000094         0.5479707449658617
32.22000000000096         0.5002931141324621
32.24000000000096         0.4467666326055321
32.26000000000098         0.39703542758180965
32.28000000000097         0.3556143771216776
32.30000000000098         0.32261545029254973
32.32000000000098         0.296787075669929
32.340000000000984        0.27679861889770935
32.36000000000099         0.26155617544509674
32.38000000000098         0.250230626935409
32.40000000000098         0.2422212368344041
32.42000000000099         0.23711450049700672
32.440000000000985        0.23465223826875842
32.460000000000996        0.23471095390493876
32.480000000000985        0.23729185225357138
32.500000000001           0.24251991082941732
32.52000000000099         0.2506574350599374
32.540000000001           0.26212052411301495
32.560000000001           0.2775136889556197
32.580000000001014        0.297670658132931
32.600000000001           0.32369105694053846
32.620000000001           0.35691242192158057
32.640000000000995        0.39859335223068615
32.660000000001           0.4486240721429606
32.68000000000099         0.5024689173651204
32.700000000000976        0.5503201648553079
32.720000000000965        0.5850143869325751
32.740000000000975        0.6035669848637747
32.76000000000096         0.6090049790895248
32.78000000000096         0.6036538912157497
32.80000000000098         0.5851869175293947
32.820000000000974        0.5505739007678904
32.84000000000098         0.5027955349811065
32.86000000000099         0.44901448093033136
32.880000000001           0.39904430600129215
32.900000000001           0.35742565546325805
32.920000000001004        0.3242703897408884
32.94000000000101         0.2983205732470695
32.96000000000101         0.278238937765653
32.98000000000103         0.26292614625894156
33.00000000000101         0.251548950327882
33.02000000000101         0.24350361790648845
33.04000000000102         0.23837463702089354
33.060000000001025        0.23590278621935967
33.080000000001036        0.23596331274425322
33.100000000001025        0.2385579532552039
33.12000000000102         0.24381329435990826
33.140000000001024        0.2519915359335884
33.16000000000103         0.2635114434575677
33.180000000001016        0.2789806114233032
33.200000000001026        0.2992370225936265
33.220000000001036        0.32538592214613055
33.240000000001025        0.3587717101938956
33.26000000000103         0.4006595745353469
33.28000000000102         0.4509399057430383
33.30000000000102         0.5050561029528434
33.32000000000101         0.5531527385086986
33.340000000001005        0.5880938236924154
33.360000000001           0.6066807111711892
33.380000000001           0.6121483735031268
33.40000000000099         0.6067693860675294
33.420000000001004        0.5882055692799822
33.44000000000102         0.553414466577795
33.460000000001024        0.5053934798545042
33.48000000000103         0.4513439426979199
33.50000000000103         0.4011272116318577
33.52000000000103         0.35930488438989705
33.540000000001044        0.3259886348009109
33.56000000000105         0.2999139162631374
33.58000000000106         0.27973658751418234
33.600000000001046        0.26435394071007645
33.62000000000105         0.2529233624856788
33.64000000000105         0.2448409411495933
33.66000000000105         0.2396891323291836
33.680000000001066        0.2372072473472063
33.70000000000106         0.23727060720205856
33.72000000000107         0.23988046919621883
33.74000000000107         0.24516413124500178
33.76000000000106         0.2533852080324303
33.78000000000107         0.2649647008649839
33.800000000001056        0.280513438977388
33.82000000000106         0.30087386744458167
33.84000000000107         0.3271571283839219
33.86000000000107         0.3607148296835255
33.88000000000106         0.4027512551214901
33.90000000000107         0.45326750480455164
33.92000000000105         0.507765229376178
33.94000000000104         0.55625286555487
33.960000000001024        0.5912420617606962
33.98000000000103         0.6099317551958853
34.00000000000102         0.615430611970987
34.02000000000103         0.6100220689898685
34.04000000000104         0.5913567077841745
34.06000000000104         0.5563794943959681
34.080000000001064        0.5081053455918727
34.10000000000106         0.45377614463527016
34.12000000000108         0.4033028528112258
34.14000000000107         0.3612686969081357
34.160000000001084        0.3277787017210919
34.18000000000107         0.3015814649787383
34.20000000000108         0.2813063683753116
34.2200000000011          0.26584641955299443
34.24000000000109         0.25436114573444807
34.260000000001085        0.24624097383945215
34.280000000001095        0.24106614625890446
34.300000000001084        0.23857461491341972
34.32000000000109         0.23864111363105608
34.340000000001105        0.24126698643664904
34.360000000001094        0.24658028027151294
34.38000000000109         0.2548460872570509
34.40000000000111         0.2664877390665392
34.4200000000011          0.2821219145183998
34.4400000000011          0.3025891280961153
34.4600000000011          0.3290050794939023
34.48000000000109         0.3627209442219213
34.50000000000111         0.40500957378553293
34.52000000000109         0.4557974920282022
34.54000000000109         0.5105915368257437
34.56000000000108         0.559348158371115
34.580000000001085        0.5945351982068523
34.60000000000108         0.6133339632957987
34.62000000000107         0.6188663962745325
34.640000000001066        0.6134272271053609
34.66000000000108         0.5946555747489775
34.68000000000107         0.5594835833707286
34.70000000000108         0.5109497521247611
34.72000000000111         0.4562296002565601
34.740000000001096        0.40551371075828774
34.76000000000111         0.363299457625732
34.78000000000112         0.329662159345703
34.80000000000111         0.3033296077277602
34.82000000000111         0.2829509255751486
34.840000000001126        0.26741301462469286
34.860000000001136        0.2558707953602488
34.88000000000112         0.24771137759766937
34.90000000000112         0.2425127251808249
34.920000000001124        0.24001135487147354
34.94000000000113         0.24008134604743175
34.96000000000113         0.2427241349113947
34.98000000000112         0.24806959043761312