% Model:              Untitled.mph
% Version:            COMSOL 5.6.0.280
% Date:               Sep 28 2021, 21:01
% Dimension:          1
% Nodes:              1015
% Expressions:        1
% Description:        线图
% cln2x                   Height
21.52                     0.22907330851909666
21.539999999999996        0.23085102217643277
21.55999999999999         0.23637888628249593
21.58                     0.24597205435201852
21.599999999999998        0.26018813254823675
21.61999999999999         0.2798375431718935
21.63999999999999         0.30596100474285326
21.659999999999993        0.33955838538925004
21.679999999999996        0.3804984558717027
21.699999999999992        0.424927603501115
21.719999999999995        0.46454423805124073
21.739999999999984        0.49329187384868667
21.759999999999987        0.5086278440762994
21.779999999999987        0.5131017389631186
21.799999999999986        0.5086652719473413
21.819999999999983        0.49341665210528274
21.839999999999996        0.46464209852495886
21.859999999999992        0.42504337176684254
21.87999999999999         0.3806218380407535
21.899999999999995        0.33968266583515344
21.919999999999984        0.3060829590066875
21.93999999999998         0.2799556289024713
21.959999999999987        0.2603012407693272
21.979999999999983        0.24607889192318239
21.999999999999986        0.2364761736557233
22.019999999999982        0.23093842411335933
22.039999999999985        0.22914725754589724
22.05999999999998         0.23099965578554824
22.079999999999984        0.2366002153492188
22.099999999999984        0.24626876509908302
22.119999999999983        0.26055984593751536
22.139999999999986        0.28029253944464466
22.159999999999986        0.3065085701357742
22.17999999999999         0.34021021723024475
22.199999999999996        0.3812656651787831
22.219999999999988        0.42581213888994884
22.239999999999984        0.46552953519254187
22.259999999999987        0.4943490713930633
22.279999999999987        0.5097237185423683
22.299999999999986        0.5142099689454321
22.319999999999983        0.5097650713893461
22.339999999999982        0.49448400962626016
22.35999999999998         0.46576362470740595
22.379999999999992        0.4259695352422774
22.39999999999998         0.3814481284268252
22.419999999999977        0.3404221817951388
22.43999999999998         0.3067517187130791
22.459999999999976        0.2805698659976964
22.47999999999998         0.26087501437233557
22.49999999999998         0.24662401563935132
22.519999999999985        0.23700272220907412
22.53999999999998         0.23145530260731328
22.559999999999988        0.22966272412282973
22.57999999999998         0.2315218003743619
22.599999999999977        0.23713742476567046
22.619999999999987        0.24683020893510982
22.639999999999986        0.26115703440444216
22.659999999999982        0.2809358282863434
22.679999999999982        0.3072138174602618
22.69999999999998         0.3409945943964223
22.719999999999988        0.38214609208627465
22.73999999999998         0.42679675731193795
22.759999999999977        0.46660739929826606
22.77999999999997         0.4954950252193506
22.799999999999976        0.5109066047085896
22.819999999999975        0.5154043616432076
22.839999999999982        0.5109500814138888
22.859999999999978        0.49563444655364935
22.879999999999974        0.46684839349162544
22.899999999999984        0.4269630940275874
22.919999999999977        0.3822651941090622
22.939999999999976        0.3412200788415118
22.959999999999972        0.30747311358730267
22.979999999999972        0.2812322420215988
22.99999999999997         0.26149353452090407
23.01999999999997         0.24721141995766577
23.03999999999997         0.23756986755767331
23.05999999999997         0.23201177819081453
23.079999999999977        0.23021741612779686
23.099999999999973        0.23208340811718203
23.11999999999997         0.23771496117327323
23.13999999999997         0.24743352339183972
23.15999999999997         0.2617973892968363
23.179999999999975        0.281622229794732
23.199999999999974        0.3079502311001778
23.219999999999974        0.3418363380591479
23.239999999999974        0.3830907877102994
23.259999999999977        0.42785323360698735
23.279999999999966        0.4677640250663824
23.29999999999997         0.496724878454124
23.31999999999997         0.5121762573140771
23.339999999999968        0.516686438708356
23.35999999999997         0.5122219570016101
23.379999999999967        0.49686886825272397
23.399999999999967        0.4680120091624212
23.419999999999956        0.42802860543911325
23.43999999999997         0.38322122132558467
23.459999999999965        0.3420223792282094
23.479999999999958        0.30824705044188205
23.499999999999957        0.2819428667230971
23.519999999999964        0.2621570391599354
23.539999999999957        0.24784142740130571
23.55999999999996         0.2381779915967382
23.57999999999996         0.2326082764699989
23.59999999999996         0.23081179287453793
23.619999999999965        0.23268496514999595
23.639999999999958        0.23833333247778501
23.65999999999996         0.2480792334368097
23.679999999999957        0.26248246848243845
23.699999999999957        0.2823608866252391
23.71999999999996         0.30875944725709903
23.739999999999956        0.3426822504996067
23.759999999999952        0.3841001287512073
23.779999999999955        0.4289818789584226
23.79999999999996         0.46899975232757535
23.81999999999995         0.4980390368592816
23.839999999999954        0.5135332186733685
23.859999999999957        0.5180569757206303
23.879999999999953        0.5135819687351852
23.899999999999952        0.4981893127371381
23.91999999999995         0.469257109819915
23.939999999999948        0.42916896173199015
23.959999999999948        0.3842442563867793
23.979999999999954        0.3429377896758293
23.999999999999947        0.3090538995495348
24.019999999999946        0.2826980158464716
24.03999999999995         0.2628658112780265
24.05999999999995         0.2485140894070692
24.079999999999945        0.23882697437251288
24.099999999999948        0.23324454638249173
24.119999999999948        0.23144549948713156
24.13999999999995         0.23332603265378485
24.15999999999995         0.2389920319092899
24.179999999999954        0.24876677952607146
24.19999999999995         0.26321167748999597
24.219999999999953        0.283146895209594
24.23999999999995         0.30962034987411385
24.25999999999995         0.34363899866724396
24.279999999999948        0.3850986813687028
24.299999999999947        0.4301821396738567
24.319999999999943        0.470313502082799
24.33999999999995         0.49943572895534877
24.359999999999946        0.5149748988555756
24.379999999999946        0.5195125381736
24.39999999999995         0.515025613572441
24.41999999999994         0.499589970908162
24.43999999999994         0.4705769608638155
24.45999999999994         0.43037713187447235
24.479999999999936        0.3853280954326407
24.49999999999994         0.34390783775905465
24.519999999999943        0.3099309424329364
24.539999999999935        0.2835030647896893
24.55999999999993         0.2636181469862166
24.579999999999934        0.2492270183306918
24.59999999999993         0.2395146722093173
24.619999999999933        0.23391860708116902
24.639999999999926        0.23211665287212513
24.65999999999993         0.23400476854843402
24.679999999999932        0.23968920407006525
24.699999999999942        0.24949423523743589
24.719999999999928        0.26398295121066767
24.73999999999993         0.2839779661653213
24.759999999999934        0.310530313398962
24.77999999999993         0.34464996117533225
24.79999999999993         0.38623255685523983
24.819999999999933        0.4314551554588617
24.839999999999936        0.4718182649494234
24.859999999999946        0.5009112284560804
24.87999999999994         0.516498256212162
24.89999999999994         0.5210510550101182
24.919999999999927        0.5165523871869758
24.939999999999934        0.5010725210219902
24.95999999999993         0.4719750661219213
24.979999999999922        0.4316576505249338
24.999999999999922        0.38647661096203745
25.019999999999932        0.34493511392041826
25.039999999999925        0.31085908581506927
25.059999999999928        0.2843544891541951
25.079999999999924        0.26441227789766364
25.099999999999927        0.24998216413250615
25.119999999999923        0.2402408289064971
25.139999999999922        0.23463003502656082
25.159999999999922        0.23282470185811985
25.179999999999925        0.23472051574239078
25.19999999999993         0.24042409454716798
25.21999999999993         0.2502607468436522
25.23999999999993         0.26479532478554696
25.259999999999923        0.28485300105195305
25.279999999999927        0.31148807062434614
25.299999999999926        0.3457136530350003
25.319999999999922        0.387425203990283
25.33999999999992         0.43278839812636855
25.359999999999925        0.4732779835962963
25.379999999999924        0.5025182005023654
25.399999999999928        0.518100497231603
25.419999999999924        0.5226690932061949
25.43999999999992         0.5181575580027974
25.459999999999923        0.5026303721173457
25.47999999999992         0.4734434226120319
25.499999999999915        0.43300197188812634
25.51999999999992         0.38768238346434336
25.539999999999917        0.3460138954575444
25.559999999999913        0.31183404507032514
25.57999999999991         0.28524906813710127
25.59999999999992         0.2652467978250637
25.61999999999991         0.2507737206839436
25.639999999999908        0.24100553873935707
25.659999999999908        0.23537851485042263
25.679999999999914        0.23356884489347332
25.699999999999914        0.2354727260071125
25.719999999999914        0.24119639357512576
25.739999999999913        0.25106624643083086
25.75999999999992         0.2656489960806684
25.779999999999916        0.28577251356649236
25.799999999999912        0.31249453503014196
25.81999999999991         0.3468315025164761
25.839999999999915        0.38867864162046367
25.859999999999914        0.43418951501368597
25.87999999999991         0.47481161967300783
25.899999999999917        0.5041482687134284
25.919999999999913        0.5197835642297524
25.939999999999916        0.524367627898736
25.95999999999991         0.5198423515603453
25.979999999999905        0.5042653432614095
25.999999999999915        0.4749843555826478
26.01999999999991         0.43441265509179877
26.039999999999907        0.38894762175822745
26.0599999999999          0.3471458402374383
26.079999999999906        0.3128570200570818
26.0999999999999          0.28618767769509545
26.119999999999905        0.26612236581598514
26.139999999999905        0.25160417293094745
26.159999999999894        0.241806167643016
26.179999999999904        0.23616283245528988
26.1999999999999          0.2343493507986231
26.2199999999999          0.2362616113388644
26.2399999999999          0.2420062646875524
26.2599999999999          0.25191084715143136
26.279999999999898        0.26654401879589756
26.29999999999991         0.2867364795998685
26.319999999999904        0.31354957360569985
26.3399999999999          0.34800322366642394
26.359999999999904        0.3899924003750038
26.3799999999999          0.4356579310390913
26.399999999999896        0.47641871313518
26.419999999999895        0.5058561932601736
26.4399999999999          0.5215460326959435
26.459999999999898        0.5261469321277223
26.479999999999908        0.5216063323255735
26.4999999999999          0.5059777690925523
26.519999999999904        0.47659819096385103
26.539999999999896        0.43588999437866005
26.559999999999896        0.39027257235917406
26.579999999999888        0.34833114013812305
26.59999999999989         0.3139281455987974
26.61999999999989         0.28717039472029315
26.639999999999894        0.267039002126835
26.6599999999999          0.2524734907006878
26.679999999999893        0.2426441556137579
26.69999999999989         0.2369836128420888
26.719999999999892        0.2351659915669157
26.739999999999892        0.23708609678641987
26.759999999999888        0.24285330735319138
26.779999999999887        0.2527940328912341
26.79999999999989         0.2674797336407275
26.819999999999883        0.28774405687302657
26.8399999999999          0.31465210465366783
26.859999999999893        0.3492274232687001
26.879999999999892        0.3913647252433149
26.89999999999989         0.437191625305249
26.919999999999888        0.47809725577200507
26.939999999999888        0.5076401141076049
26.95999999999989         0.5233869743518207
26.979999999999887        0.5280053069506186
26.999999999999897        0.5234491580405658
27.019999999999893        0.5077094891932815
27.039999999999885        0.4782824306822704
27.05999999999988         0.43743143171668925
27.07999999999988         0.39165501065148267
27.09999999999988         0.34956802424805794
27.119999999999873        0.31504602825144584
27.139999999999876        0.28819610143965935
27.15999999999988         0.26799578633829063
27.17999999999988         0.253380900324619
27.199999999999886        0.2435188462671164
27.219999999999875        0.2378402858625944
27.23999999999987         0.23601825994159897
27.259999999999877        0.23794725465556743
27.279999999999877        0.24373555457372859
27.29999999999988         0.2537134043933721
27.31999999999988         0.2684557625292054
27.33999999999988         0.2887948929107943
27.359999999999875        0.3158018064353056
27.37999999999988         0.3505038202429396
27.399999999999874        0.39279538187178553
27.419999999999874        0.43879037110198077
27.439999999999877        0.4798469384708137
27.45999999999987         0.5094996404086518
27.47999999999988         0.525305989757249
27.499999999999872        0.52994260861374
27.519999999999886        0.5253705128094677
27.539999999999882        0.5095735410551585
27.55999999999988         0.47991996224261163
27.579999999999874        0.43903952937127055
27.599999999999874        0.39309715320749455
27.619999999999873        0.3508580755478346
27.639999999999876        0.31621171277105414
27.659999999999865        0.2892654603181191
27.679999999999872        0.26899311776316454
27.699999999999868        0.25432661870974205
27.71999999999987         0.24443033315459603
27.739999999999874        0.23873286317095904
27.75999999999987         0.23690609938425927
27.779999999999873        0.23884420049566932
27.799999999999862        0.24465590398543335
27.81999999999987         0.25467273366268983
27.83999999999987         0.269470792263035
27.859999999999868        0.2898886853459772
27.879999999999868        0.31699832685768076
27.899999999999874        0.35183200731894426
27.919999999999874        0.39428390307768363
27.939999999999873        0.44045363130300064
27.959999999999866        0.48166713673075673
27.97999999999987         0.511434045139661
27.99999999999986         0.5273022195074615
28.019999999999865        0.5319577702895426
28.039999999999868        0.5273689469567991
28.059999999999867        0.5115121886318231
28.079999999999874        0.48174644721522686
28.099999999999866        0.44070642037382485
28.11999999999986         0.39467363892424945
28.13999999999986         0.35219950106690306
28.159999999999854        0.3174238057089784
28.179999999999854        0.290377355544451
28.199999999999857        0.2700300645299701
28.219999999999853        0.25530983201263097
28.239999999999853        0.24537787683274356
28.25999999999986         0.23966065571195733
28.27999999999986         0.23782884936812537
28.29999999999985         0.23977627228980658
28.319999999999858        0.24561213997229364
28.339999999999854        0.2556693041497945
28.359999999999854        0.2705261439239818
28.37999999999985         0.2910290120573338
28.399999999999856        0.31824068728581084
28.419999999999856        0.35321086648026073
28.439999999999866        0.3958290089622673
28.459999999999855        0.44217996111648566
28.47999999999986         0.4835562817657346
28.499999999999858        0.5134416975832791
28.51999999999986         0.5293740421362304
28.539999999999857        0.5340492441067448
28.55999999999986         0.529443061755849
28.579999999999853        0.5135242641547858
28.599999999999856        0.4836421227423153
28.61999999999986         0.44244194202110093
28.639999999999855        0.3962303242001239
28.659999999999847        0.3536471119261502
28.67999999999985         0.3186817989603568
28.699999999999843        0.2915313359716137
28.719999999999843        0.2711062368594415
28.739999999999846        0.25633021317378424
28.75999999999984         0.24636121209827408
28.779999999999838        0.24062346314962868
28.799999999999848        0.23878638505658986
28.819999999999844        0.24074342148895453
28.839999999999847        0.24660428468681236
28.859999999999843        0.2567032109708466
28.879999999999843        0.27162093970164314
28.899999999999842        0.2922072594446546
28.919999999999845        0.31955059126921426
28.93999999999984         0.354696371701136
28.95999999999984         0.3974313438302713
28.97999999999985         0.44397013772844157
28.99999999999985         0.4855152185160213
29.01999999999985         0.5155234600516632
29.03999999999985         0.5315223202717158
29.059999999999846        0.5362179497441623
29.079999999999846        0.5315939398366831
29.099999999999845        0.5156110940204124
29.11999999999984         0.48560848303299375
29.13999999999984         0.4442423616192503
29.159999999999844        0.3978451799689479
29.179999999999836        0.35509146165884636
29.199999999999836        0.320007927441791
29.219999999999832        0.29272809653118925
29.239999999999835        0.27222220687154036
29.259999999999835        0.25738824011201983
29.279999999999834        0.24738074179990882
29.299999999999837        0.2416216251256499
29.319999999999833        0.23977899461995839
29.33999999999984         0.2417458984696376
29.359999999999832        0.2476325474332251
29.379999999999832        0.25777460801194557
29.39999999999983         0.2727552623206862
29.419999999999828        0.2934278450623903
29.43999999999983         0.32088530664771936
29.459999999999837        0.35617746252188176
29.47999999999983         0.39916805143796724
29.499999999999833        0.445823504519381
29.519999999999843        0.48754344490809115
29.539999999999836        0.5176790884152587
29.559999999999835        0.5337470702778889
29.579999999999835        0.5384639317877246
29.599999999999838        0.5338213099237042
29.619999999999834        0.5177718261965423
29.639999999999837        0.48764418683567123
29.65999999999983         0.4461060613028395
29.679999999999822        0.3995168201588285
29.699999999999832        0.3565867515070476
29.719999999999825        0.3213589403122778
29.739999999999824        0.293971816481809
29.75999999999982         0.27337677998380716
29.779999999999816        0.2584839382652818
29.799999999999812        0.24843660389105154
29.819999999999826        0.2426553771844837
29.839999999999826        0.2408070084208289
29.85999999999982         0.24278414255370445
29.879999999999825        0.24869750909066846
29.89999999999982         0.25888425594023085
29.919999999999828        0.27393010651604655
29.93999999999982         0.2946920909493695
29.95999999999982         0.3222678857453342
29.97999999999982         0.35771187117254316
29.99999999999982         0.4008873492993758
30.019999999999822        0.44773852129993064
30.039999999999832        0.48952310965305423
30.059999999999828        0.5199111167706059
30.079999999999824        0.5360498316018752
30.09999999999982         0.5407880703927377
30.119999999999827        0.5361257706019739
30.13999999999982         0.5200069773784071
30.15999999999982         0.4897497169415635
30.179999999999815        0.448033477855341
30.199999999999815        0.4012455840637014
30.21999999999982         0.3581332074611851
30.23999999999982         0.32275626339957275
30.25999999999981         0.2952536020333197
30.27999999999981         0.27457210557218803
30.299999999999812        0.259615184128604
30.31999999999981         0.24952864367833966
30.339999999999808        0.24372447349041038
30.359999999999808        0.24187007118230858
30.379999999999814        0.24385766166672745
30.399999999999817        0.24979850571247916
30.419999999999817        0.2600312734675734
30.439999999999813        0.27514430124698497
30.45999999999981         0.2959984245962313
30.479999999999812        0.3236961862131145
30.499999999999808        0.35929666381008746
30.51999999999981         0.4026627382150943
30.53999999999981         0.44972128295346137
30.55999999999981         0.49169201090009723
30.579999999999814        0.5221590624006855
30.599999999999813        0.538428473826652
30.619999999999813        0.5431889907583208
30.63999999999981         0.5385063165071561
30.659999999999815        0.52231572031617
30.679999999999808        0.4919243556458874
30.699999999999804        0.4500239826480918
30.719999999999803        0.40303089350505283
30.739999999999803        0.35973026037219225
30.75999999999981         0.32419930634735017
30.77999999999981         0.29657730162887297
30.7999999999998          0.27580644535324567
30.8199999999998          0.26078533957850775
30.8399999999998          0.2506544700008073
30.859999999999804        0.24482801343617688
30.879999999999804        0.24296717158569958
30.899999999999796        0.2449653171531666
30.919999999999803        0.2509342533576466
30.93999999999981         0.26121421381724746
30.959999999999802        0.27639622199203523
30.97999999999981         0.2973450284472743
30.9999999999998          0.32516818305511214
31.019999999999797        0.36092959862314333
31.0399999999998          0.40449173340849864
31.059999999999803        0.45176367059914163
31.0799999999998          0.4939260403482699
31.099999999999802        0.5245332011742219
31.119999999999806        0.5408777175941142
31.139999999999798        0.5456617488010114
31.159999999999798        0.5409584872106199
31.1799999999998          0.5246924704702959
31.199999999999797        0.4941624421378154
31.219999999999796        0.452072130017372
31.239999999999796        0.40486794713345237
31.259999999999803        0.3613738696271073
31.279999999999795        0.3256846721038057
31.299999999999795        0.29794001934274306
31.319999999999794        0.2770772976027216
31.33999999999979         0.2619901592228598
31.35999999999979         0.25181525838907987
31.37999999999979         0.24596335861839652
31.39999999999979         0.24409658283478894
31.419999999999796        0.24610545305957057
31.439999999999802        0.2521031233849549
31.459999999999802        0.26243143775301225
31.4799999999998          0.2776841796566777
31.49999999999979         0.29873012121837794
31.51999999999979         0.326681956097864
31.53999999999979         0.3626085663138436
31.55999999999979         0.4063719919574795
31.579999999999796        0.4538630980116392
31.59999999999979         0.4962224341836965
31.619999999999788        0.5269737268668504
31.639999999999787        0.5433965029811401
31.659999999999794        0.5482043672120596
31.67999999999978         0.5434798029047773
31.699999999999783        0.5271380855746041
31.719999999999775        0.49646632753402475
31.73999999999978         0.4541812130076731
31.75999999999979         0.4067596454174948
31.77999999999978         0.3630660099549917
31.799999999999766        0.3272135628730182
31.819999999999773        0.29934244715841923
31.83999999999978         0.27838505739035263
31.859999999999783        0.26322988246071244
31.879999999999775        0.25300959565863973
31.899999999999775        0.24713226334266547
31.919999999999774        0.24525847223817104
31.939999999999774        0.2472790735745113
31.95999999999978         0.2533053832808794
31.979999999999766        0.2636832989046115
31.999999999999773        0.27900863473043924
32.019999999999776        0.30015429369430785
32.03999999999977         0.3282382546150842
32.05999999999978         0.3643345068933811
32.079999999999764        0.40830466605936444
32.099999999999774        0.4560208896172839
32.11999999999978         0.4985825537156231
32.13999999999979         0.529481890647549
32.159999999999776        0.5459849813259207
32.17999999999978         0.5508170952557079
32.19999999999978         0.5460701467459197
32.21999999999978         0.5297082789274611
32.239999999999775        0.4988319833253287
32.25999999999977         0.4563464378401345
32.27999999999976         0.40870185621537425
32.29999999999977         0.3648037755281985
32.319999999999766        0.3287841256765155
32.33999999999977         0.3007834896865574
32.359999999999765        0.2797291694982349
32.37999999999977         0.2645043675358112
32.399999999999764        0.2542376594386857
32.419999999999774        0.2483343564185098
32.43999999999976         0.24645348510719475
32.459999999999766        0.2484854253511174
32.47999999999977         0.25454367532714495
32.499999999999766        0.26497312054908473
32.51999999999976         0.2803710453690931
32.539999999999765        0.3016192487538074
32.55999999999977         0.329839066200006
32.57999999999977         0.36610974274349084
32.59999999999977         0.4102924626529416
32.619999999999784        0.45824015872855667
32.63999999999977         0.5010098901249229
32.659999999999776        0.5320615203265743
32.67999999999977         0.548647337456948
32.699999999999775        0.5535046979020694
32.71999999999977         0.5487353847316134
32.73999999999976         0.5322940719139444
32.75999999999977         0.5013922784278483
32.77999999999977         0.4585769784130639
32.79999999999976         0.41070294597013124
32.81999999999976         0.3665942654139874
32.83999999999976         0.33040246774623483
32.85999999999975         0.3022686411158817
32.879999999999754        0.2811148114446932
32.89999999999975         0.26581870699145244
32.919999999999746        0.25550463419037667
32.93999999999975         0.2495750400189264
32.95999999999975         0.247687346979421
32.97999999999975         0.24973145779272146
32.999999999999744        0.25582148667169186
33.019999999999754        0.26630407749105445
33.03999999999976         0.2817806277102377
33.059999999999754        0.3031340433230616
33.07999999999976         0.33149458383704844
33.09999999999975         0.367945820110358
33.119999999999756        0.41234849060509415
33.13999999999975         0.4605356763870432
33.15999999999977         0.5035207137670283
33.17999999999975         0.5347299155790942
33.199999999999754        0.5514011753570462
33.21999999999976         0.556284074219431
33.23999999999975         0.5514902748518669
33.25999999999975         0.5349647716933991
33.27999999999975         0.5039070903970717
33.29999999999976         0.46088322566516204
33.31999999999975         0.4126873037428726
33.33999999999976         0.368443001970764
33.359999999999744        0.33207475856828184
33.37999999999975         0.3038044257989622
33.39999999999975         0.282548655085967
33.41999999999974         0.26717961721598293
33.43999999999974         0.25681726578434017
33.45999999999974         0.250861098228873
33.47999999999974         0.24896690526815082
33.49999999999974         0.25102412795738976
33.51999999999974         0.2571475427515715
33.539999999999736        0.2676856331152604
33.55999999999974         0.28324293418396623
33.57999999999973         0.30470228036542163
33.599999999999746        0.33321371137893313
33.61999999999974         0.36985248855408354
33.63999999999974         0.4144835594724759
33.659999999999734        0.46291951970368483
33.679999999999744        0.5061284637373096
33.69999999999976         0.5375017487246931
33.71999999999974         0.5542622838590774
33.739999999999746        0.5591722753187464
33.75999999999975         0.5543537926906281
33.77999999999975         0.5377418188833364
33.79999999999974         0.5065229980275598
33.819999999999744        0.46327741946346024
33.83999999999975         0.41483532233305015
33.859999999999744        0.37030845487380065
33.87999999999975         0.3338142204360606
33.89999999999973         0.3054016651757349
33.91999999999973         0.28403969757185177
33.93999999999973         0.26859467824377614
33.95999999999973         0.2581820214788232
33.97999999999973         0.2521981183227984
33.99999999999973         0.25029702364893935
34.01999999999973         0.25236768780296914
34.03999999999973         0.25852557063760534
34.05999999999975         0.26912105948385884
34.07999999999973         0.28476193903557023
34.099999999999724        0.3063357596755289
34.119999999999735        0.33497636159324706
34.13999999999972         0.37177368257547155
34.15999999999973         0.41669949131061296
34.17999999999973         0.4653934232199873
34.19999999999973         0.5088348653601561
34.21999999999974         0.5403787640076623
34.239999999999746        0.5572324163327319
34.259999999999735        0.5621710179629946
34.27999999999973         0.5573275326822966
34.299999999999734        0.5406265934857352
34.31999999999973         0.5092411746016577
34.339999999999726        0.465765873589047
34.35999999999973         0.4170681129765932
34.379999999999725        0.3723074190395431
34.39999999999972         0.33560004323629095
34.41999999999974         0.3070621504102134
34.43999999999973         0.28558996698416045
34.459999999999724        0.2700661558192826
34.47999999999971         0.2596014129858306
34.49999999999973         0.2535889033620472
34.519999999999726        0.25168084393358076
34.53999999999972         0.25376566099462533
34.55999999999971         0.2599595315227584
34.57999999999972         0.2706148304875711
34.59999999999974         0.2863427289483815