% Model:              Untitled.mph
% Version:            COMSOL 5.6.0.280
% Date:               Sep 28 2021, 20:55
% Dimension:          1
% Nodes:              994
% Expressions:        1
% Description:        线图
% cln1x                   Height
49.24999999999999         0.29902506205422946
49.260000000000076        0.2983296758836843
49.280000000000086        0.29929114329266787
49.300000000000104        0.3034918613624698
49.32000000000011         0.3112021698337228
49.34000000000012         0.3228815367538823
49.36000000000011         0.33921585860305675
49.38000000000013         0.3611661309235251
49.400000000000134        0.3900098887308893
49.420000000000144        0.4273043628938326
49.440000000000154        0.47453520750729267
49.460000000000164        0.5318088667420278
49.48000000000015         0.5938727093640689
49.50000000000016         0.649554180277002
49.520000000000174        0.6901990739741837
49.540000000000205        0.7121113718836461
49.560000000000194        0.7184532233052169
49.58000000000019         0.7117792170318116
49.60000000000019         0.689511068232533
49.62000000000021         0.6483473313457403
49.6400000000002          0.5917073229544788
49.66000000000021         0.5285028612181896
49.680000000000234        0.47009296731690103
49.70000000000021         0.42146835855459086
49.72000000000022         0.382666327604967
49.74000000000024         0.35221553510995185
49.760000000000254        0.3285609473543984
49.78000000000025         0.31042276916872086
49.80000000000025         0.29682365391061527
49.82000000000027         0.28705324027982576
49.840000000000266        0.28061983488151143
49.86000000000028         0.27721275923068395
49.88000000000028         0.2766777977741
49.90000000000029         0.27900516120458985
49.92000000000031         0.2843296145954858
49.940000000000296        0.2929422515741893
49.96000000000031         0.30530993321685546
49.98000000000032         0.3221079121661032
50.00000000000033         0.3442775299499982
50.02000000000034         0.37307668712558667
50.04000000000033         0.41002703322889417
50.060000000000365        0.45657305111032986
50.08000000000035         0.5126448335144079
50.10000000000036         0.5732463075019986
50.12000000000035         0.6273954435996667
50.140000000000356        0.6668054417642122
50.160000000000366        0.6879770296523668
50.18000000000036         0.6941180930383918
50.20000000000038         0.687775406909578
50.22000000000038         0.6664353175244471
50.240000000000386        0.6267942852378017
50.260000000000396        0.5721045161073043
50.280000000000406        0.5110186190697926
50.300000000000416        0.4543831726338076
50.320000000000405        0.4072172173038121
50.34000000000043         0.3696100980937693
50.36000000000043         0.3401295545746755
50.38000000000044         0.3172582981884361
50.400000000000446        0.29974860579777934
50.42000000000046         0.2866536578666392
50.44000000000047         0.27728597571400665
50.46000000000046         0.2711704798460542
50.48000000000047         0.2680079562990781
50.500000000000476        0.2676512414458444
50.520000000000486        0.2700934920833463
50.54000000000049         0.2754678381339187
50.56000000000051         0.28405667068734197
50.58000000000051         0.2963207640362987
50.60000000000052         0.31292695435016177
50.62000000000053         0.3347990231333054
50.640000000000526        0.3631577084765131
50.66000000000054         0.3994906261176345
50.68000000000056         0.44520494539195726
50.70000000000054         0.5002151415184153
50.72000000000055         0.5595888541743381
50.740000000000556        0.612542118523582
50.76000000000056         0.6510232633849387
50.78000000000056         0.6716488470136726
50.800000000000566        0.6776282388619256
50.82000000000058         0.6714810994580065
50.84000000000057         0.6506654106991223
50.860000000000575        0.6119543565372615
50.88000000000058         0.5587225029380616
50.9000000000006          0.4990136788548393
50.92000000000062         0.44361903813232073
50.94000000000062         0.39748495839675696
50.96000000000063         0.36070822037892947
50.980000000000636        0.3318885831334255
51.00000000000064         0.3095417214270136
51.02000000000065         0.29244731203128915
51.04000000000065         0.2796796676332458
51.06000000000068         0.2705669878604027
51.080000000000666        0.2646454110834507
51.10000000000067         0.2616234912756552
51.12000000000067         0.26135776566710595
51.14000000000069         0.26384360712336274
51.16000000000069         0.2692130415839023
51.1800000000007          0.2777462192390884
51.20000000000071         0.28989407908082937
51.22000000000071         0.30631341804058815
51.24000000000071         0.3279121222773272
51.26000000000073         0.3558894313936953
51.28000000000072         0.39170611078852596
51.30000000000074         0.43674189991543205
51.32000000000075         0.49090223900068497
51.34000000000075         0.549310854282376
51.36000000000075         0.6013423736980011
51.380000000000734        0.6391889605177955
51.40000000000074         0.6593356098880528
51.42000000000074         0.6651914694716232
51.440000000000765        0.6591820436419892
51.46000000000077         0.6387980502724678
51.48000000000077         0.6008319103870476
51.50000000000078         0.5485813600990453
51.52000000000079         0.4899213272034693
51.540000000000816        0.4354784352014671
51.56000000000083         0.390135392079892
51.58000000000084         0.3539932056753106
51.60000000000083         0.3256764819586456
51.62000000000085         0.30372654266623617
51.64000000000084         0.286944277405192
51.66000000000085         0.27442199993780697
51.68000000000085         0.2654958268183816
51.70000000000087         0.2597129196590296
51.72000000000089         0.25678728383771016
51.74000000000088         0.2565794314653251
51.760000000000886        0.25908521744743745
51.7800000000009          0.2644356238446237
51.800000000000885        0.2729074869366653
51.82000000000092         0.28494582069073476
51.840000000000906        0.3011983565161044
51.860000000000916        0.32256008791518953
51.880000000000926        0.35021286557820547
51.90000000000094         0.38559578365835334
51.92000000000093         0.429995259598633
51.94000000000094         0.4834275111599763
51.960000000000946        0.5411536726708147
51.98000000000094         0.5925951446582831
52.00000000000094         0.6297414641558965
52.020000000000934        0.6495777699934586
52.04000000000095         0.6553435670604842
52.06000000000094         0.649440592385469
52.08000000000096         0.6293896335197516
52.10000000000098         0.5920061101848568
52.12000000000098         0.5405298563758186
52.140000000000995        0.48270617221243844
52.160000000001           0.4290256696697936
52.18000000000104         0.3843161545673289
52.20000000000103         0.3486745373515127
52.22000000000105         0.3207665621899172
52.24000000000106         0.29913399689650494
52.26000000000104         0.282598855636752
52.28000000000106         0.2702663199676249
52.30000000000107         0.26148668633563443
52.32000000000107         0.25581152217079633
52.34000000000109         0.2529593474761834
52.36000000000108         0.2527932401373867
52.380000000001104        0.2553098601997445
52.40000000000111         0.26063927494071953
52.42000000000112         0.2690555812740527
52.44000000000114         0.2809989579933557
52.46000000000112         0.2971097594580633
52.48000000000113         0.31827344716099343
52.50000000000115         0.34564842596122497
52.52000000000115         0.3806506957435009
52.54000000000114         0.42461392206882487
52.560000000001146        0.4774714495848504
52.58000000000116         0.5345551047017433
52.600000000001124        0.585396613207017
52.62000000000113         0.6220930318107256
52.64000000000112         0.64167605387321
52.66000000000113         0.6473655929132732
52.68000000000113         0.64154166653372
52.700000000001125        0.6217499283653072
52.72000000000114         0.5848303968615683
52.74000000000116         0.533982169526385
52.760000000001185        0.4767402289697694
52.7800000000012          0.423713123885794
52.80000000000121         0.3795672119922629
52.82000000000125         0.3443705379628026
52.84000000000124         0.31679119120245675
52.86000000000126         0.29541674446689903
52.880000000001246        0.27908335689940367
52.90000000000125         0.266907007278296
52.92000000000126         0.2582459180113628
52.94000000000126         0.2526572524382369
52.96000000000128         0.24986322562801416
52.98000000000128         0.24972899852548977
53.00000000000127         0.2522518580142957
53.02000000000129         0.2575621299259848
53.0400000000013          0.26593010945197054
53.06000000000132         0.2777924258174556
53.08000000000131         0.2937828543654052
53.10000000000133         0.31477574778470396
53.120000000001326        0.3419232718799033
53.14000000000133         0.37662440136764985
53.16000000000133         0.4201984608156457
53.180000000001336        0.47257613504607765
53.20000000000134         0.5291267544461068
53.22000000000133         0.5794762671274672
53.24000000000134         0.6158076006913685
53.26000000000132         0.6351893179221793
53.28000000000132         0.6408224563093234
53.300000000001326        0.6350707124779184
53.32000000000134         0.6155670696146557
53.34000000000136         0.57910999963315
53.360000000001385        0.5286329328834183
53.38000000000139         0.4719500503003975
53.400000000001405        0.41943214326089456
53.420000000001416        0.3757090431644413
53.440000000001426        0.34085056558612753
53.460000000001436        0.3135381136031265
53.48000000000145         0.29237305582599254
53.500000000001464        0.27620293790869105
53.52000000000147         0.26415243394901916
53.54000000000147         0.25558614580234573
53.56000000000147         0.2500651762885791
53.58000000000149         0.2473162194130176
53.60000000000149         0.24720508770811006
53.62000000000149         0.24972957453127892
53.6400000000015          0.25501827082638867
53.66000000000151         0.2633409972387933
53.680000000001506        0.275130377589581
53.700000000001516        0.29101502457685335
53.720000000001534        0.3118620004143762
53.74000000000154         0.3388136863098672
53.76000000000154         0.37325698029744536
53.78000000000154         0.4164992813987018
53.80000000000154         0.4684692500592831
53.82000000000152         0.5245680081359814
53.840000000001524        0.5743566835336774
53.860000000001506        0.6104546448419351
53.880000000001495        0.6297332709497582
53.90000000000151         0.6353176854909045
53.920000000001515        0.6296213916072275
53.94000000000152         0.6102960036119347
53.96000000000155         0.5741587580491898
53.98000000000156         0.5241138480915573
54.000000000001606        0.46790411943510174
54.020000000001595        0.4158193157645479
54.040000000001605        0.3724557324678169
54.060000000001615        0.33788424460147964
54.080000000001625        0.3107977016776375
54.10000000000166         0.2898093364340785
54.120000000001646        0.2737741585445002
54.14000000000165         0.261829550697754
54.16000000000166         0.2533425590576389
54.18000000000168         0.24787856015611473
54.20000000000168         0.24516524031438724
54.22000000000169         0.24507082512911033
54.24000000000169         0.24759344056906532
54.260000000001696        0.2528609910174783
54.28000000000169         0.2611415215056038
54.30000000000171         0.27286463223258006
54.3200000000017          0.2886544134508194
54.340000000001744        0.30937157202144366
54.36000000000174         0.3361499666411513
54.380000000001736        0.3703937001277817
54.40000000000174         0.4133859817530166
54.42000000000174         0.4650244489354278
54.44000000000174         0.52062976667106
54.4600000000017          0.570065728291551
54.48000000000171         0.6059002056344115
54.50000000000172         0.625035363958733
54.52000000000173         0.6305795346089884
54.54000000000171         0.6249315053369484
54.560000000001736        0.6057587255144794
54.58000000000174         0.5698958365719227
54.600000000001764        0.5202223758512833
54.620000000001816        0.4644202988708564
54.640000000001805        0.41270885597156387
54.66000000000182         0.36968267287677964
54.680000000001826        0.33533684972724515
54.700000000001836        0.3084368432570888
54.72000000000186         0.2875980823607798
54.740000000001864        0.27168242011384547
54.76000000000186         0.25982693851634164
54.780000000001856        0.25140592634385367
54.800000000001866        0.24598804219674983
54.82000000000188         0.24330306647802125
54.84000000000189         0.2432203354832431
54.860000000001904        0.24573821578232286
54.8800000000019          0.2509839754995189
54.9000000000019          0.2592240739088638
54.920000000001934        0.27088543665215764
54.940000000001916        0.2865856512334049
54.960000000001955        0.3071865405995923
54.98000000000194         0.3338161438022407
55.00000000000195         0.36784972198858074
55.020000000001936        0.4105819429655291
55.040000000001946        0.4619028714074401
55.060000000001935        0.5171585804294839
55.080000000001924        0.566273905583533
55.10000000000192         0.6018704745591539
55.12000000000192         0.6208740514234448
55.140000000001905        0.6263797678186035
55.16000000000192         0.6207732466838006
55.18000000000193         0.6017352637556903
55.20000000000194         0.5659730934232851
55.22000000000198         0.5167663172068312
55.24000000000201         0.4614249097350272
55.260000000002016        0.4100186190637861
55.280000000002026        0.3671975245188249
55.30000000000206         0.3330701128736658
55.320000000002054        0.30634132379657003
55.34000000000207         0.2856356985987353
55.36000000000208         0.2698225627552577
55.380000000002084        0.2580446735613658
55.400000000002066        0.24968045891208843
55.42000000000209         0.24430147102907443
55.4400000000021          0.24163934913374235
55.46000000000211         0.2415643675581356
55.48000000000213         0.2440744516561438
55.500000000002125        0.24929686410152166
55.52000000000214         0.2574963592931607
55.54000000000214         0.26909746105998
55.56000000000215         0.2847170431921454
55.580000000002165        0.30520655685060755
55.60000000000216         0.33168948079689337
55.62000000000217         0.3655326579756821
55.64000000000217         0.408022551839351
55.660000000002164        0.45904858244371094
55.68000000000215         0.5139813609177599
55.70000000000214         0.5628029803946041
55.72000000000212         0.5981829601477583
55.740000000002105        0.6170680396649405
55.7600000000021          0.6225396248211967
55.780000000002104        0.6169701754789115
55.80000000000213         0.5979883792209324
55.82000000000214         0.5625153983453954
55.84000000000217         0.5136084148493176
55.86000000000221         0.4585971418531401
55.88000000000223         0.4074939015114845
55.90000000000223         0.3649239606811912
55.920000000002254        0.33099621983634936
55.94000000000226         0.30442367659464104
55.960000000002275        0.2838392343392638
55.98000000000227         0.26811906657497486
56.000000000002295        0.2564111211449422
56.02000000000229         0.2480986211065903
56.04000000000231         0.24275322160321935
56.06000000000232         0.24010983641101621
56.080000000002315        0.24003954465988103
56.10000000000234         0.2425408437098278
56.12000000000233         0.24773960632676312
56.14000000000233         0.2558993135497396
56.16000000000235         0.26744213094137853
56.180000000002345        0.2829814576622153
56.200000000002376        0.30336390148345393
56.22000000000237         0.3297065047333408
56.24000000000237         0.3633682184527185
56.26000000000235         0.4056278716963396
56.28000000000235         0.4563744601493107
56.300000000002356        0.5110071798573279
56.32000000000234         0.559688599782261
56.34000000000232         0.5947906805811771
56.36000000000231         0.6134985698451005
56.38000000000231         0.6189374299375862
56.40000000000232         0.613403294112494
56.420000000002354        0.5945361790096698
56.44000000000235         0.5592707616309502
56.460000000002374        0.5106447902878473
56.4800000000024          0.45594340004733847
56.50000000000243         0.4051247658879741
56.520000000002454        0.362790633672396
56.54000000000246         0.3290502345494014
56.560000000002475        0.3026241327550575
56.5800000000025          0.28215557047953665
56.60000000000249         0.2665219579952095
56.62000000000249         0.25487842133393646
56.64000000000251         0.2466111385248861
56.66000000000251         0.2412968155014412
56.68000000000252         0.23867030074117118
56.700000000002525        0.2386034725833623
56.72000000000254         0.24109492129993312
56.74000000000253         0.2462698672373093
56.76000000000256         0.25439035907527213
56.78000000000255         0.26587628842605593
56.800000000002555        0.2813377433965025
56.82000000000258         0.30161673086334034
56.84000000000256         0.32781779506036907
56.86000000000257         0.3612843854289908
56.880000000002575        0.403282562305351
56.90000000000257         0.45373658755618174
56.92000000000255         0.5081705959321974
56.94000000000255         0.5565862981061582
56.96000000000253         0.5914934432899349
56.98000000000252         0.6100948700674648
57.000000000002515        0.6155027884087056
57.02000000000251         0.6100020829401954
57.04000000000255         0.5912442733184737
57.06000000000255         0.5561768602794215
57.080000000002585        0.507819040733222
57.100000000002616        0.453413433081179
57.12000000000265         0.40279870914599825
57.14000000000267         0.36073049545150115
57.16000000000268         0.32718982855800727
57.180000000002686        0.30091089319795383
57.20000000000273         0.2805498132182202
57.2200000000027          0.2649991255518625
57.24000000000271         0.25341772060809226
57.26000000000271         0.24519514137046827
57.28000000000271         0.23991042247751884
57.30000000000274         0.2372998886348383
57.32000000000274         0.23723616587548918
57.34000000000276         0.23971792947810971
57.36000000000275         0.24486981052349024
57.38000000000277         0.25295249466797715
57.400000000002784        0.26438589837272347
57.42000000000277         0.27977264817566155
57.44000000000279         0.2999505110851938
57.4600000000028          0.32602075810526127
57.4800000000028          0.35931981269496205
57.5000000000028          0.40110597017404315
57.52000000000279         0.4513031277481072
57.54000000000277         0.5054568151190965
57.560000000002745        0.5536189910043559
57.58000000000272         0.5883408745740647
57.60000000000271         0.6068418684078197
57.62000000000272         0.6122210435880922
57.6400000000027          0.6067525332217522
57.66000000000275         0.5881651567406538
57.680000000002764        0.5533606255528745
57.70000000000278         0.5051245099503602
57.72000000000283         0.4509041879492581
57.74000000000285         0.40064233928546816
57.76000000000287         0.3587895493592945
57.78000000000289         0.3254201500796136
57.80000000000289         0.29927516383832004
57.82000000000292         0.2790178297895286
57.84000000000291         0.2635465253952569
57.86000000000291         0.25202457148758073
57.88000000000292         0.243844727297514
57.90000000000294         0.23858825188103583
57.92000000000294         0.23599287716092052
57.940000000002954        0.23593211101301587
57.96000000000297         0.23840471741963265
57.98000000000297         0.24353465833090696
58.00000000000297         0.25158138317421647
58.02000000000298         0.26296035884683705
58.04000000000298         0.27827493410591897
58.06000000000301         0.29835701214064114
58.080000000003004        0.3243022523015126
58.10000000000301         0.3574402216255034
58.120000000003           0.3990226191001226
58.14000000000299         0.4489730377174346
58.16000000000298         0.5028576649972692
58.180000000002956        0.5507767907297152
58.20000000000292         0.5853212365203873
58.22000000000292         0.6037253119191093
58.240000000002915        0.6090778057707855
58.26000000000293         0.6036405688338773
58.28000000000294         0.5851514745183582
58.30000000000295         0.550527400247509
58.320000000003           0.5025372411585352
58.340000000003016        0.44858870760272546
58.36000000000305         0.3985764108457931
58.380000000003086        0.35693043325327606
58.40000000000309         0.3237254116655922
58.42000000000311         0.29770892886492184
58.44000000000313         0.27755105623162046
58.46000000000312         0.2621557774182181
58.48000000000312         0.25068907233314963
58.50000000000313         0.24255055377926352
58.52000000000315         0.23732130893175218
58.540000000003154        0.23474044278347692
58.56000000000316         0.2346820147100919
58.580000000003174        0.23714488031411549
58.60000000000316         0.24225260522818917
58.62000000000318         0.2502634224134913
58.640000000003184        0.26159079299258686
58.660000000003194        0.2768350759241125
58.68000000000321         0.2968240543131934
58.7000000000032          0.32264797620170177
58.72000000000321         0.35562981618454786
58.74000000000321         0.39701494519255953
58.760000000003195        0.44681847624411297
58.780000000003184        0.500345820823062
58.80000000000315         0.5478960589267313
58.82000000000311         0.5823421419239441
58.84000000000314         0.6007189451919458
58.860000000003126        0.6060447056077797
58.88000000000313         0.6006369718788918
58.90000000000316         0.5822437406414839
58.92000000000317         0.5477940500100491
58.9400000000032          0.5000414674166913
58.96000000000325         0.4463553046721806
58.98000000000325         0.3965838678468224
59.00000000000328         0.35513751636804364
59.0200000000033          0.32209117644782104
59.04000000000332         0.2961978911094942
59.06000000000334         0.2761344271719869
59.08000000000333         0.2608127100268061
59.10000000000334         0.24940299373788125
59.120000000003344        0.24130365468446463
59.140000000003354        0.23610004900309517
59.16000000000335         0.2335325733585834
59.18000000000336         0.23347592499974265
59.20000000000338         0.23592899689332053
59.22000000000338         0.2410147976310718
59.240000000003384        0.24899036986838055
59.26000000000339         0.2602672509454687
59.2800000000034          0.2754429456448949
59.30000000000338         0.29534039273515733
59.320000000003425        0.32105343813654463
59.34000000000343         0.35390401250298126
59.36000000000342         0.3951376996877693
59.380000000003406        0.4446425082022211
59.40000000000338         0.4979176805024414
59.42000000000337         0.545239830447286
59.44000000000334         0.5795183947511674
59.46000000000334         0.5978038892803932
59.48000000000333         0.6031032062611242
59.500000000003325        0.5977237781784783
59.52000000000335         0.5794233134239494
59.540000000003374        0.5451426970036394
59.560000000003406        0.4976206660432822
59.580000000003444        0.4442805079447035
59.600000000003476        0.3947186446111594
59.6200000000035          0.35342644368647325
59.64000000000353         0.3205140516811924
59.66000000000352         0.29473518641021323
59.680000000003524        0.2747651425778025
59.70000000000354         0.2595148078766778
59.72000000000355         0.24815841613749526
59.74000000000355         0.24009722852180831
59.76000000000356         0.23491859212061264
59.78000000000356         0.23236415716367706
59.800000000003564        0.2323092395294964
59.82000000000358         0.23475276692443636
59.840000000003585        0.23981720254569944
59.8600000000036          0.24775683723959266
59.880000000003584        0.2589838873062636
59.9000000000036          0.27409254864381594
59.92000000000362         0.2939041674459374
59.940000000003614        0.3195023792085164
59.96000000000364         0.3522053415821361
59.98000000000365         0.3932527105698867
60.00000000000362         0.44253239772511116
60.0200000000036          0.4955626351382808
60.04000000000358         0.5426633530107565
60.06000000000355         0.5767792830490404
60.080000000003544        0.5949760061221481
60.100000000003526        0.6002491690842323
60.12000000000353         0.5948960874508733
60.140000000003546        0.5766191105174634
60.16000000000358         0.542428506062189
60.1800000000036          0.49526169274823295
60.20000000000365         0.4421748034506392
60.22000000000368         0.3928418558935618
60.2400000000037          0.3517396225854016
60.260000000003714        0.31897819907691893
60.280000000003724        0.29331732772467395
60.30000000000373         0.2734386004545459
60.32000000000375         0.25825805707625205
60.34000000000376         0.24695382791366527
60.36000000000376         0.23892999611535612
60.38000000000376         0.2337758556164571
60.40000000000378         0.2312344456558125
60.42000000000378         0.23118102640768157
60.440000000003806        0.23361502792653221
60.460000000003795        0.23865832339451143
60.48000000000381         0.24656562061324758
60.50000000000382         0.2577448313469546
60.520000000003805        0.2727884868644176
60.54000000000382         0.2925142199458288
60.56000000000382         0.3180006904114767
60.58000000000384         0.3505599826274784
60.60000000000383         0.3914259727021583
60.620000000003834        0.4404865911230397
60.6400000000038          0.493279031283817
60.660000000003784        0.5401658463471175
60.680000000003744        0.5741902975228642
60.70000000000374         0.5922386795251326
60.72000000000373         0.5974875778108899
60.74000000000374         0.5921618617597416
60.76000000000376         0.5739749104597515
60.78000000000378         0.5399449106822379
60.80000000000382         0.4929952596283869
60.820000000003866        0.44014740288635007
60.8400000000039          0.39103401974429197
60.860000000003915        0.3501140014033284
60.880000000003925        0.3174976158105178
60.900000000003956        0.2919502902683919
60.920000000003974        0.27215955539779335
60.94000000000397         0.2570485021373213
60.96000000000397         0.24579398125272942
60.980000000003976        0.23780559764081438
61.000000000003986        0.23267458774840355
61.02000000000399         0.23014496730601186
61.04000000000399         0.23009317124177892
61.06000000000403         0.23251812346611478
61.08000000000401         0.23754117589446644
61.10000000000402         0.24541592557668881
61.12000000000403         0.2565484955493141
61.140000000004044        0.2715288177046968
61.16000000000406         0.29117093546864536
61.18000000000405         0.31654872433133885
61.20000000000407         0.34896838213750603
61.220000000004056        0.38959226550216874
61.24000000000403         0.4384159677029881
61.260000000004           0.49107334941084757
61.28000000000399         0.5378843365314618
61.300000000003955        0.5716201863613477
61.320000000003944        0.5895872025284921
61.340000000003926        0.5948130324359745
61.360000000003936        0.5895134651307714
61.380000000003946        0.571411272472825
61.40000000000398         0.5375355541836009
61.42000000000402         0.49079567996754037
61.44000000000406         0.4381804132005234
61.460000000004094        0.3892814369268565
61.48000000000412         0.348539483745365
61.50000000000414         0.3160586437997077
61.52000000000417         0.29062932317978085
61.540000000004156        0.27092617994226204
61.56000000000417         0.25587858022697685
61.58000000000418         0.24467335321646635
61.60000000000419         0.23672032440385948
61.62000000000419         0.23161255154695892
61.64000000000419         0.2290952089765488
61.6600000000042          0.229045306435375
61.68000000000423         0.23146180584770723
61.700000000004216        0.236465569438046
61.72000000000422         0.24430913750421732
61.74000000000423         0.2553969236560507
61.76000000000425         0.2703187641150868
61.78000000000425         0.28987891603411514
61.800000000004246        0.315145211645893
61.820000000004256        0.3474106478666477
61.84000000000427         0.3878919660193066
61.86000000000425         0.43651164240362805
61.88000000000421         0.4889467666626332
61.900000000004205        0.5355567425908817
61.92000000000415         0.5691457474938962
61.940000000004154        0.5870329787683167
61.960000000004136        0.5922356398571591
61.98000000000414         0.5869607423278884
62.000000000004164        0.5689399028938023
62.02000000000419         0.5352127511799227
62.04000000000423         0.4886806373517099
62.06000000000425         0.43619480812297257
62.0800000000043          0.38752701149028385
62.100000000004336        0.3469964211555507
62.12000000000435         0.31467884898374404
62.14000000000436         0.28935682501173554
62.160000000004366        0.26973691074481565
62.18000000000437         0.25475306244262513
62.200000000004394        0.24359559643823153
62.22000000000439         0.2356768695522665
62.24000000000439         0.23059168836319127
62.260000000004396        0.22808633869166825
62.28000000000441         0.2280383973512498
62.30000000000443         0.23044687357273144
62.32000000000443         0.23543314421459668
62.34000000000444         0.24324732498966278
62.36000000000444         0.2542926287262607