% Model:              Untitled.mph
% Version:            COMSOL 5.6.0.280
% Date:               Oct 6 2021, 16:55
% Dimension:          1
% Nodes:              1015
% Expressions:        1
% Description:        线图
% cln2x                   Height
21.52                     0.2290733085190896
21.539999999999996        0.2308510221764234
21.55999999999999         0.23637888628248777
21.58                     0.24597205435201092
21.599999999999998        0.2601881325482278
21.61999999999999         0.27983754317188564
21.63999999999999         0.3059610047428427
21.659999999999993        0.33955838538923866
21.679999999999996        0.3804984558716904
21.699999999999992        0.4249276035011005
21.719999999999995        0.4645442380512265
21.739999999999984        0.49329187384867085
21.759999999999987        0.5086278440762837
21.779999999999987        0.5131017389631028
21.799999999999986        0.5086652719473249
21.819999999999983        0.4934166521052657
21.839999999999996        0.4646420985249435
21.859999999999992        0.4250433717668282
21.87999999999999         0.38062183804073974
21.899999999999995        0.33968266583514295
21.919999999999984        0.30608295900667765
21.93999999999998         0.279955628902463
21.959999999999987        0.2603012407693177
21.979999999999983        0.24607889192317298
21.999999999999986        0.23647617365571622
22.019999999999982        0.23093842411335233
22.039999999999985        0.22914725754588902
22.05999999999998         0.2309996557855412
22.079999999999984        0.23660021534921172
22.099999999999984        0.24626876509907475
22.119999999999983        0.2605598459375084
22.139999999999986        0.28029253944463467
22.159999999999986        0.306508570135764
22.17999999999999         0.3402102172302347
22.199999999999996        0.3812656651787696
22.219999999999988        0.4258121388899357
22.239999999999984        0.4655295351925278
22.259999999999987        0.49434907139304685
22.279999999999987        0.5097237185423519
22.299999999999986        0.5142099689454152
22.319999999999983        0.5097650713893302
22.339999999999982        0.49448400962624434
22.35999999999998         0.4657636247073904
22.379999999999992        0.4259695352422643
22.39999999999998         0.38144812842681314
22.419999999999977        0.34042218179512745
22.43999999999998         0.30675171871307033
22.459999999999976        0.28056986599768696
22.47999999999998         0.2608750143723274
22.49999999999998         0.24662401563934422
22.519999999999985        0.23700272220906587
22.53999999999998         0.23145530260730626
22.559999999999988        0.22966272412282387
22.57999999999998         0.2315218003743548
22.599999999999977        0.23713742476566213
22.619999999999987        0.24683020893510224
22.639999999999986        0.26115703440443505
22.659999999999982        0.2809358282863342
22.679999999999982        0.3072138174602501
22.69999999999998         0.3409945943964121
22.719999999999988        0.3821460920862639
22.73999999999998         0.4267967573119249
22.759999999999977        0.4666073992982519
22.77999999999997         0.4954950252193348
22.799999999999976        0.5109066047085739
22.819999999999975        0.5154043616431906
22.839999999999982        0.5109500814138729
22.859999999999978        0.4956344465536346
22.879999999999974        0.4668483934916117
22.899999999999984        0.4269630940275749
22.919999999999977        0.38226519410904963
22.939999999999976        0.34122007884150096
22.959999999999972        0.3074731135872923
22.979999999999972        0.28123224202159014
22.99999999999997         0.2614935345208968
23.01999999999997         0.24721141995765705
23.03999999999997         0.23756986755766513
23.05999999999997         0.23201177819080632
23.079999999999977        0.23021741612778981
23.099999999999973        0.23208340811717384
23.11999999999997         0.237714961173265
23.13999999999997         0.24743352339183272
23.15999999999997         0.26179738929682733
23.179999999999975        0.2816222297947232
23.199999999999974        0.3079502311001672
23.219999999999974        0.3418363380591366
23.239999999999974        0.3830907877102867
23.259999999999977        0.4278532336069737
23.279999999999966        0.46776402506636894
23.29999999999997         0.49672487845410945
23.31999999999997         0.5121762573140618
23.339999999999968        0.5166864387083389
23.35999999999997         0.5122219570015943
23.379999999999967        0.49686886825270865
23.399999999999967        0.4680120091624071
23.419999999999956        0.42802860543910054
23.43999999999997         0.38322122132557046
23.459999999999965        0.34202237922819845
23.479999999999958        0.3082470504418733
23.499999999999957        0.281942866723089
23.519999999999964        0.26215703915992666
23.539999999999957        0.24784142740129758
23.55999999999996         0.23817799159673125
23.57999999999996         0.23260827646999072
23.59999999999996         0.2308117928745309
23.619999999999965        0.2326849651499889
23.639999999999958        0.23833333247777802
23.65999999999996         0.24807923343680166
23.679999999999957        0.2624824684824309
23.699999999999957        0.282360886625231
23.71999999999996         0.30875944725709004
23.739999999999956        0.3426822504995959
23.759999999999952        0.3841001287511953
23.779999999999955        0.42898187895840945
23.79999999999996         0.46899975232755936
23.81999999999995         0.49803903685926676
23.839999999999954        0.5135332186733528
23.859999999999957        0.5180569757206139
23.879999999999953        0.51358196873517
23.899999999999952        0.4981893127371218
23.91999999999995         0.46925710981989943
23.939999999999948        0.42916896173197777
23.959999999999948        0.38424425638676757
23.979999999999954        0.34293778967581906
23.999999999999947        0.3090538995495257
24.019999999999946        0.2826980158464632
24.03999999999995         0.2628658112780175
24.05999999999995         0.24851408940706143
24.079999999999945        0.2388269743725058
24.099999999999948        0.23324454638248593
24.119999999999948        0.23144549948712337
24.13999999999995         0.23332603265377672
24.15999999999995         0.2389920319092828
24.179999999999954        0.24876677952606333
24.19999999999995         0.2632116774899871
24.219999999999953        0.2831468952095846
24.23999999999995         0.3096203498741059
24.25999999999995         0.3436389986672329
24.279999999999948        0.3850986813686902
24.299999999999947        0.430182139673843
24.319999999999943        0.4703135020827849
24.33999999999995         0.49943572895533356
24.359999999999946        0.5149748988555598
24.379999999999946        0.5195125381735848
24.39999999999995         0.5150256135724264
24.41999999999994         0.4995899709081466
24.43999999999994         0.470576960863801
24.45999999999994         0.430377131874458
24.479999999999936        0.3853280954326278
24.49999999999994         0.3439078377590443
24.519999999999943        0.3099309424329261
24.539999999999935        0.2835030647896778
24.55999999999993         0.2636181469862078
24.579999999999934        0.24922701833068353
24.59999999999993         0.23951467220930914
24.619999999999933        0.23391860708116205
24.639999999999926        0.2321166528721181
24.65999999999993         0.2340047685484271
24.679999999999932        0.23968920407005928
24.699999999999942        0.24949423523742761
24.719999999999928        0.2639829512106601
24.73999999999993         0.283977966165312
24.759999999999934        0.3105303133989525
24.77999999999993         0.3446499611753235
24.79999999999993         0.3862325568552296
24.819999999999933        0.43145515545884816
24.839999999999936        0.4718182649494094
24.859999999999946        0.5009112284560657
24.87999999999994         0.5164982562121457
24.89999999999994         0.5210510550101024
24.919999999999927        0.5165523871869601
24.939999999999934        0.5010725210219743
24.95999999999993         0.47197506612190715
24.979999999999922        0.43165765052492056
24.999999999999922        0.3864766109620256
25.019999999999932        0.3449351139204079
25.039999999999925        0.31085908581506105
25.059999999999928        0.28435448915418765
25.079999999999924        0.2644122778976554
25.099999999999927        0.24998216413249744
25.119999999999923        0.24024082890648885
25.139999999999922        0.23463003502655497
25.159999999999922        0.23282470185811283
25.179999999999925        0.23472051574238376
25.19999999999993         0.24042409454715863
25.21999999999993         0.2502607468436446
25.23999999999993         0.2647953247855394
25.259999999999923        0.28485300105194516
25.279999999999927        0.3114880706243378
25.299999999999926        0.34571365303499024
25.319999999999922        0.38742520399027236
25.33999999999992         0.43278839812635544
25.359999999999925        0.4732779835962826
25.379999999999924        0.50251820050235
25.399999999999928        0.5181004972315871
25.419999999999924        0.5226690932061797
25.43999999999992         0.5181575580027816
25.459999999999923        0.50263037211733
25.47999999999992         0.4734434226120182
25.499999999999915        0.4330019718881128
25.51999999999992         0.38768238346433204
25.539999999999917        0.34601389545753447
25.559999999999913        0.31183404507031515
25.57999999999991         0.28524906813709355
25.59999999999992         0.26524679782505384
25.61999999999991         0.2507737206839365
25.639999999999908        0.2410055387393489
25.659999999999908        0.23537851485041325
25.679999999999914        0.23356884489346627
25.699999999999914        0.23547272600710428
25.719999999999914        0.24119639357511757
25.739999999999913        0.25106624643082087
25.75999999999992         0.2656489960806613
25.779999999999916        0.28577251356648525
25.799999999999912        0.31249453503013286
25.81999999999991         0.3468315025164658
25.839999999999915        0.388678641620452
25.859999999999914        0.4341895150136731
25.87999999999991         0.4748116196729937
25.899999999999917        0.5041482687134131
25.919999999999913        0.5197835642297366
25.939999999999916        0.5243676278987202
25.95999999999991         0.5198423515603294
25.979999999999905        0.5042653432613943
25.999999999999915        0.4749843555826339
26.01999999999991         0.4344126550917862
26.039999999999907        0.3889476217582163
26.0599999999999          0.3471458402374269
26.079999999999906        0.31285702005707255
26.0999999999999          0.2861876776950871
26.119999999999905        0.26612236581597604
26.139999999999905        0.25160417293094156
26.159999999999894        0.24180616764300894
26.179999999999904        0.2361628324552828
26.1999999999999          0.23434935079861607
26.2199999999999          0.23626161133885618
26.2399999999999          0.2420062646875454
26.2599999999999          0.2519108471514243
26.279999999999898        0.2665440187958894
26.29999999999991         0.28673647959985893
26.319999999999904        0.3135495736056908
26.3399999999999          0.3480032236664136
26.359999999999904        0.38999240037499155
26.3799999999999          0.4356579310390775
26.399999999999896        0.4764187131351653
26.419999999999895        0.5058561932601583
26.4399999999999          0.5215460326959277
26.459999999999898        0.5261469321277065
26.479999999999908        0.5216063323255589
26.4999999999999          0.5059777690925371
26.519999999999904        0.4765981909638374
26.539999999999896        0.43588999437864734
26.559999999999896        0.3902725723591637
26.579999999999888        0.3483311401381113
26.59999999999989         0.31392814559878796
26.61999999999989         0.28717039472028444
26.639999999999894        0.26703900212682624
26.6599999999999          0.2524734907006807
26.679999999999893        0.24264415561375088
26.69999999999989         0.23698361284208064
26.719999999999892        0.2351659915669075
26.739999999999892        0.23708609678641282
26.759999999999888        0.24285330735318425
26.779999999999887        0.2527940328912258
26.79999999999989         0.2674797336407185
26.819999999999883        0.2877440568730181
26.8399999999999          0.3146521046536592
26.859999999999893        0.34922742326869044
26.879999999999892        0.39136472524330246
26.89999999999989         0.4371916253052353
26.919999999999888        0.4780972557719906
26.939999999999888        0.5076401141075904
26.95999999999989         0.5233869743518055
26.979999999999887        0.5280053069506022
26.999999999999897        0.5234491580405499
27.019999999999893        0.5077094891932656
27.039999999999885        0.47828243068225706
27.05999999999988         0.4374314317166754
27.07999999999988         0.39165501065147146
27.09999999999988         0.3495680242480473
27.119999999999873        0.3150460282514377
27.139999999999876        0.28819610143965
27.15999999999988         0.26799578633828336
27.17999999999988         0.2533809003246118
27.199999999999886        0.2435188462671094
27.219999999999875        0.23784028586258743
27.23999999999987         0.23601825994159079
27.259999999999877        0.2379472546555604
27.279999999999877        0.2437355545737227
27.29999999999988         0.25371340439336393
27.31999999999988         0.2684557625291964
27.33999999999988         0.2887948929107848
27.359999999999875        0.3158018064352959
27.37999999999988         0.35050382024292837
27.399999999999874        0.39279538187177404
27.419999999999874        0.4387903711019676
27.439999999999877        0.4798469384707994
27.45999999999987         0.5094996404086372
27.47999999999988         0.5253059897572337
27.499999999999872        0.5299426086137248
27.519999999999886        0.5253705128094525
27.539999999999882        0.5095735410551432
27.55999999999988         0.4799199622425974
27.579999999999874        0.43903952937125856
27.599999999999874        0.39309715320748384
27.619999999999873        0.3508580755478231
27.639999999999876        0.31621171277104504
27.659999999999865        0.2892654603181097
27.679999999999872        0.2689931177631561
27.699999999999868        0.25432661870973156
27.71999999999987         0.24443033315458898
27.739999999999874        0.2387328631709509
27.75999999999987         0.23690609938425225
27.779999999999873        0.23884420049566113
27.799999999999862        0.24465590398542628
27.81999999999987         0.25467273366268156
27.83999999999987         0.26947079226302845
27.859999999999868        0.2898886853459682
27.879999999999868        0.3169983268576719
27.899999999999874        0.35183200731893244
27.919999999999874        0.394283903077672
27.939999999999873        0.44045363130298826
27.959999999999866        0.48166713673074213
27.97999999999987         0.5114340451396456
27.99999999999986         0.5273022195074467
28.019999999999865        0.5319577702895286
28.039999999999868        0.5273689469567839
28.059999999999867        0.5115121886318066
28.079999999999874        0.4817464472152119
28.099999999999866        0.44070642037381313
28.11999999999986         0.3946736389242375
28.13999999999986         0.35219950106689296
28.159999999999854        0.31742380570896944
28.179999999999854        0.29037735554444327
28.199999999999857        0.270030064529963
28.219999999999853        0.2553098320126217
28.239999999999853        0.24537787683273657
28.25999999999986         0.23966065571195266
28.27999999999986         0.23782884936811835
28.29999999999985         0.23977627228979956
28.319999999999858        0.24561213997228531
28.339999999999854        0.2556693041497888
28.359999999999854        0.27052614392397345
28.37999999999985         0.2910290120573264
28.399999999999856        0.3182406872858018
28.419999999999856        0.3532108664802509
28.439999999999866        0.39582900896225565
28.459999999999855        0.44217996111647206
28.47999999999986         0.48355628176572024
28.499999999999858        0.5134416975832637
28.51999999999986         0.5293740421362152
28.539999999999857        0.5340492441067296
28.55999999999986         0.5294430617558343
28.579999999999853        0.5135242641547713
28.599999999999856        0.4836421227423012
28.61999999999986         0.4424419420210883
28.639999999999855        0.3962303242001119
28.659999999999847        0.35364711192614023
28.67999999999985         0.3186817989603473
28.699999999999843        0.2915313359716061
28.719999999999843        0.27110623685943397
28.739999999999846        0.25633021317377824
28.75999999999984         0.24636121209826597
28.779999999999838        0.24062346314962166
28.799999999999848        0.238786385056584
28.819999999999844        0.2407434214889475
28.839999999999847        0.2466042846868042
28.859999999999843        0.2567032109708396
28.879999999999843        0.2716209397016339
28.899999999999842        0.2922072594446464
28.919999999999845        0.31955059126920354
28.93999999999984         0.35469637170112556
28.95999999999984         0.3974313438302607
28.97999999999985         0.44397013772842847
28.99999999999985         0.4855152185160079
29.01999999999985         0.5155234600516473
29.03999999999985         0.5315223202717
29.059999999999846        0.5362179497441457
29.079999999999846        0.5315939398366668
29.099999999999845        0.5156110940203971
29.11999999999984         0.48560848303297954
29.13999999999984         0.4442423616192373
29.159999999999844        0.39784517996893587
29.179999999999836        0.3550914616588349
29.199999999999836        0.32000792744178097
29.219999999999832        0.29272809653117854
29.239999999999835        0.2722222068715326
29.259999999999835        0.25738824011201283
29.279999999999834        0.2473807417999005
29.299999999999837        0.241621625125644
29.319999999999833        0.23977899461995136
29.33999999999984         0.24174589846963063
29.359999999999832        0.24763254743321805
29.379999999999832        0.2577746080119397
29.39999999999983         0.2727552623206791
29.419999999999828        0.29342784506238256
29.43999999999983         0.3208853066477109
29.459999999999837        0.3561774625218703
29.47999999999983         0.39916805143795553
29.499999999999833        0.44582350451936714
29.519999999999843        0.4875434449080769
29.539999999999836        0.5176790884152436
29.559999999999835        0.5337470702778737
29.579999999999835        0.5384639317877087
29.599999999999838        0.5338213099236896
29.619999999999834        0.5177718261965288
29.639999999999837        0.4876441868356576
29.65999999999983         0.4461060613028264
29.679999999999822        0.39951682015881596
29.699999999999832        0.3565867515070372
29.719999999999825        0.3213589403122685
29.739999999999824        0.29397181648179993
29.75999999999982         0.2733767799838002
29.779999999999816        0.2584839382652746
29.799999999999812        0.24843660389104444
29.819999999999826        0.24265537718447672
29.839999999999826        0.24080700842082187
29.85999999999982         0.24278414255369743
29.879999999999825        0.24869750909066146
29.89999999999982         0.25888425594022374
29.919999999999828        0.27393010651603794
29.93999999999982         0.2946920909493629
29.95999999999982         0.3222678857453267
29.97999999999982         0.3577118711725327
29.99999999999982         0.40088734929936565
30.019999999999822        0.44773852129991787
30.039999999999832        0.4895231096530399
30.059999999999828        0.5199111167705907
30.079999999999824        0.5360498316018588
30.09999999999982         0.5407880703927218
30.119999999999827        0.5361257706019581
30.13999999999982         0.5200069773783925
30.15999999999982         0.48974971694154906
30.179999999999815        0.44803347785532804
30.199999999999815        0.4012455840636908
30.21999999999982         0.35813320746117483
30.23999999999982         0.3227562633995633
30.25999999999981         0.29525360203331125
30.27999999999981         0.2745721055721795
30.299999999999812        0.25961518412859697
30.31999999999981         0.24952864367833266
30.339999999999808        0.2437244734904022
30.359999999999808        0.24187007118230155
30.379999999999814        0.24385766166671805
30.399999999999817        0.24979850571247209
30.419999999999817        0.2600312734675663
30.439999999999813        0.27514430124697664
30.45999999999981         0.29599842459622355
30.479999999999812        0.3236961862131055
30.499999999999808        0.3592966638100758
30.51999999999981         0.4026627382150823
30.53999999999981         0.44972128295344754
30.55999999999981         0.49169201090008247
30.579999999999814        0.5221590624006709
30.599999999999813        0.5384284738266368
30.619999999999813        0.5431889907583051
30.63999999999981         0.5385063165071409
30.659999999999815        0.5223157203161548
30.679999999999808        0.4919243556458725
30.699999999999804        0.4500239826480794
30.719999999999803        0.40303089350504034
30.739999999999803        0.35973026037218214
30.75999999999981         0.32419930634734007
30.77999999999981         0.29657730162886464
30.7999999999998          0.2758064453532374
30.8199999999998          0.2607853395785008
30.8399999999998          0.25065447000080043
30.859999999999804        0.244828013436171
30.879999999999804        0.24296717158569023
30.899999999999796        0.24496531715315956
30.919999999999803        0.2509342533576384
30.93999999999981         0.2612142138172416
30.959999999999802        0.2763962219920259
30.97999999999981         0.29734502844726596
30.9999999999998          0.32516818305510387
31.019999999999797        0.3609295986231337
31.0399999999998          0.40449173340848943
31.059999999999803        0.4517636705991298
31.0799999999998          0.4939260403482558
31.099999999999802        0.5245332011742068
31.119999999999806        0.5408777175940989
31.139999999999798        0.5456617488009956
31.159999999999798        0.5409584872106058
31.1799999999998          0.5246924704702807
31.199999999999797        0.4941624421377997
31.219999999999796        0.45207213001735846
31.239999999999796        0.4048679471334404
31.259999999999803        0.36137386962709694
31.279999999999795        0.32568467210379504
31.299999999999795        0.2979400193427338
31.319999999999794        0.2770772976027123
31.33999999999979         0.26199015922285285
31.35999999999979         0.251815258389074
31.37999999999979         0.24596335861839067
31.39999999999979         0.24409658283478075
31.419999999999796        0.24610545305956233
31.439999999999802        0.2521031233849491
31.459999999999802        0.26243143775300387
31.4799999999998          0.27768417965667114
31.49999999999979         0.2987301212183688
31.51999999999979         0.3266819560978546
31.53999999999979         0.362608566313832
31.55999999999979         0.4063719919574677
31.579999999999796        0.4538630980116262
31.59999999999979         0.4962224341836837
31.619999999999788        0.5269737268668351
31.639999999999787        0.5433965029811247
31.659999999999794        0.5482043672120449
31.67999999999978         0.5434798029047619
31.699999999999783        0.52713808557459
31.719999999999775        0.4964663275340107
31.73999999999978         0.4541812130076607
31.75999999999979         0.4067596454174841
31.77999999999978         0.36306600995498145
31.799999999999766        0.3272135628730088
31.819999999999773        0.29934244715841113
31.83999999999978         0.2783850573903442
31.859999999999783        0.2632298824607031
31.879999999999775        0.25300959565863274
31.899999999999775        0.24713226334265845
31.919999999999774        0.2452584722381652
31.939999999999774        0.2472790735745054
31.95999999999978         0.25330538328087243
31.979999999999766        0.2636832989046034
31.999999999999773        0.2790086347304322
32.019999999999776        0.3001542936942994
32.03999999999977         0.3282382546150741
32.05999999999978         0.3643345068933715
32.079999999999764        0.4083046660593521
32.099999999999774        0.4560208896172718
32.11999999999978         0.4985825537156101
32.13999999999979         0.5294818906475356
32.159999999999776        0.5459849813259067
32.17999999999978         0.5508170952556926
32.19999999999978         0.5460701467459051
32.21999999999978         0.5297082789274471
32.239999999999775        0.4988319833253145
32.25999999999977         0.45634643784012213
32.27999999999976         0.40870185621536437
32.29999999999977         0.3648037755281889
32.319999999999766        0.3287841256765084
32.33999999999977         0.30078348968655105
32.359999999999765        0.2797291694982268
32.37999999999977         0.26450436753580286
32.399999999999764        0.2542376594386787
32.419999999999774        0.24833435641850274
32.43999999999976         0.2464534851071866
32.459999999999766        0.24848542535111037
32.47999999999977         0.25454367532713784
32.499999999999766        0.26497312054907535
32.51999999999976         0.28037104536908497
32.539999999999765        0.30161924875379814
32.55999999999977         0.3298390661999978
32.57999999999977         0.3661097427434799
32.59999999999977         0.41029246265292907
32.619999999999784        0.45824015872854446
32.63999999999977         0.5010098901249088
32.659999999999776        0.5320615203265607
32.67999999999977         0.5486473374569334
32.699999999999775        0.5535046979020547
32.71999999999977         0.5487353847315988
32.73999999999976         0.5322940719139296
32.75999999999977         0.5013922784278347
32.77999999999977         0.458576978413052
32.79999999999976         0.41070294597012097
32.81999999999976         0.3665942654139773
32.83999999999976         0.3304024677462268
32.85999999999975         0.3022686411158738
32.879999999999754        0.28111481144468514
32.89999999999975         0.2658187069914455
32.919999999999746        0.2555046341903695
32.93999999999975         0.24957504001892047
32.95999999999975         0.24768734697941394
32.97999999999975         0.24973145779271566
32.999999999999744        0.2558214866716836
33.019999999999754        0.26630407749104745
33.03999999999976         0.2817806277102296
33.059999999999754        0.30313404332305216
33.07999999999976         0.3314945838370383
33.09999999999975         0.3679458201103472
33.119999999999756        0.4123484906050831
33.13999999999975         0.4605356763870312
33.15999999999977         0.5035207137670147
33.17999999999975         0.5347299155790796
33.199999999999754        0.551401175357031
33.21999999999976         0.556284074219416
33.23999999999975         0.5514902748518516
33.25999999999975         0.5349647716933836
33.27999999999975         0.5039070903970575
33.29999999999976         0.46088322566515005
33.31999999999975         0.41268730374286255
33.33999999999976         0.36844300197075425
33.359999999999744        0.33207475856827345
33.37999999999975         0.30380442579895395
33.39999999999975         0.28254865508595967
33.41999999999974         0.26717961721597594
33.43999999999974         0.25681726578433195
33.45999999999974         0.25086109822886593
33.47999999999974         0.24896690526814264
33.49999999999974         0.2510241279573839
33.51999999999974         0.2571475427515656
33.539999999999736        0.2676856331152556
33.55999999999974         0.2832429341839572
33.57999999999973         0.3047022803654143
33.599999999999746        0.3332137113789242
33.61999999999974         0.36985248855407415
33.63999999999974         0.414483559472464
33.659999999999734        0.4629195197036735
33.679999999999744        0.5061284637372967
33.69999999999976         0.5375017487246783
33.71999999999974         0.5542622838590621
33.739999999999746        0.5591722753187318
33.75999999999975         0.5543537926906135
33.77999999999975         0.5377418188833235
33.79999999999974         0.5065229980275462
33.819999999999744        0.4632774194634486
33.83999999999975         0.41483532233303916
33.859999999999744        0.37030845487378977
33.87999999999975         0.33381422043605113
33.89999999999973         0.30540166517572664
33.91999999999973         0.2840396975718436
33.93999999999973         0.26859467824376787
33.95999999999973         0.2581820214788162
33.97999999999973         0.2521981183227938
33.99999999999973         0.2502970236489335
34.01999999999973         0.25236768780296215
34.03999999999973         0.25852557063759835
34.05999999999975         0.2691210594838519
34.07999999999973         0.2847619390355614
34.099999999999724        0.3063357596755203
34.119999999999735        0.33497636159323874
34.13999999999972         0.3717736825754614
34.15999999999973         0.41669949131060324
34.17999999999973         0.465393423219975
34.19999999999973         0.5088348653601429
34.21999999999974         0.540378764007647
34.239999999999746        0.5572324163327184
34.259999999999735        0.5621710179629805
34.27999999999973         0.5573275326822809
34.299999999999734        0.5406265934857201
34.31999999999973         0.5092411746016436
34.339999999999726        0.4657658735890361
34.35999999999973         0.4170681129765824
34.379999999999725        0.3723074190395337
34.39999999999972         0.3356000432362824
34.41999999999974         0.3070621504102052
34.43999999999973         0.28558996698415184
34.459999999999724        0.27006615581927557
34.47999999999971         0.25960141298582373
34.49999999999973         0.2535889033620413
34.519999999999726        0.2516808439335749
34.53999999999972         0.2537656609946194
34.55999999999971         0.25995953152275153
34.57999999999972         0.2706148304875629
34.59999999999974         0.28634272894837437
34.61999999999972         0.30803568951904875