% Model:              Untitled.mph
% Version:            COMSOL 5.6.0.280
% Date:               Sep 28 2021, 21:03
% Dimension:          1
% Nodes:              994
% Expressions:        1
% Description:        线图
% cln1x                   Height
49.25                     0.2989012175411885
49.260000000000076        0.2976856734501146
49.28000000000008         0.29773324077352314
49.300000000000104        0.30117314960759123
49.32000000000011         0.30825767455009245
49.340000000000096        0.3194268625167709
49.36000000000012         0.3353447959011013
49.38000000000012         0.35694729611557596
49.40000000000012         0.38548354936907764
49.42000000000013         0.4224786771474089
49.440000000000154        0.46937789105643085
49.46000000000015         0.5262532306146445
49.480000000000146        0.5878566201853218
49.50000000000016         0.6430795587274082
49.52000000000017         0.6833587101269674
49.540000000000184        0.7050451688450857
49.56000000000018         0.7112999926804918
49.58000000000018         0.7046564194449888
49.600000000000186        0.6825284574723348
49.62000000000019         0.6415890064113134
49.64000000000019         0.5851883487529983
49.66000000000021         0.5221337825828255
49.680000000000234        0.46373468406255197
49.70000000000021         0.4149954611592721
49.720000000000226        0.37599133586430966
49.74000000000024         0.3452896598678013
49.76000000000023         0.3213673742157136
49.780000000000236        0.3029697999047527
49.800000000000246        0.28913842105006027
49.82000000000026         0.279176834346813
49.840000000000266        0.27260327009895563
49.86000000000027         0.26911353096177765
49.88000000000028         0.268556781566958
49.90000000000028         0.2709236139355182
49.920000000000314        0.27634575215238
49.9400000000003          0.285107478131679
49.96000000000031         0.2976678593625123
49.9800000000003          0.3146922481832484
50.00000000000031         0.33710000005481694
50.02000000000032         0.36612078047732366
50.040000000000326        0.4032422355098691
50.06000000000035         0.44986784620807335
50.08000000000034         0.5058881302811769
50.10000000000035         0.5662981113227096
50.12000000000035         0.6201781152570369
50.140000000000356        0.6593468220602133
50.16000000000036         0.6803687774859283
50.18000000000037         0.6864653636778543
50.20000000000038         0.6801783544831509
50.220000000000375        0.6590021989877983
50.240000000000364        0.6196214873241587
50.260000000000396        0.5652231581598256
50.28000000000039         0.504353388707823
50.30000000000041         0.4477969817088975
50.3200000000004          0.4005786257859707
50.34000000000042         0.36282478302453647
50.36000000000043         0.33314271100519033
50.380000000000436        0.31004831745684397
50.40000000000044         0.29231975336573157
50.42000000000046         0.2790297798328338
50.44000000000047         0.26950541865010125
50.46000000000046         0.2632819517310355
50.48000000000047         0.2600670261966464
50.500000000000476        0.25971722324018115
50.520000000000486        0.26222650135871484
50.54000000000049         0.26772583511332954
50.5600000000005          0.276492258163233
50.58000000000052         0.2889776989271745
50.60000000000052         0.30583574030863214
50.620000000000516        0.3279716365740331
50.640000000000526        0.3565809815429972
50.66000000000053         0.39311841495289657
50.68000000000056         0.43895104058271245
50.70000000000054         0.49395493717459754
50.720000000000546        0.5531897779361061
50.74000000000055         0.605930383372029
50.760000000000545        0.6442178465010705
50.78000000000055         0.6647257046245592
50.800000000000544        0.6706712255398395
50.820000000000555        0.6645685815615121
50.84000000000056         0.6438841595563454
50.86000000000058         0.6053838621710942
50.88000000000057         0.552386076841156
50.90000000000059         0.492840478308049
50.92000000000061         0.43747905952491273
50.9400000000006          0.3912548397166486
50.96000000000063         0.35430106155617275
50.98000000000063         0.3252560710394229
51.000000000000625        0.3026677421028082
51.02000000000064         0.2853407297017919
51.04000000000065         0.27236817442332834
51.06000000000067         0.2630921566054544
51.080000000000666        0.25705867592669984
51.10000000000067         0.25398275795298497
51.12000000000068         0.25372436835188955
51.14000000000068         0.2562794940996652
51.16000000000069         0.2617779067897552
51.180000000000696        0.2704944596996403
51.20000000000071         0.2828713412131291
51.2200000000007          0.29955248509461474
51.24000000000072         0.32142784502497207
51.260000000000716        0.3496723773642433
51.280000000000726        0.38571499720571356
51.30000000000074         0.43089664069665196
51.32000000000074         0.48508539029778247
51.34000000000075         0.5433968960764082
51.36000000000074         0.5952601705007193
51.38000000000074         0.6329500884446407
51.40000000000074         0.6530027675514744
51.42000000000074         0.6588326149242241
51.44000000000075         0.6528592849002829
51.46000000000077         0.6325816788411124
51.48000000000077         0.5947874966420661
51.500000000000774        0.5427234036553604
51.52000000000079         0.4841800502627268
51.54000000000081         0.4297301876425445
51.5600000000008          0.38426420049868676
51.58000000000082         0.3479190152645979
51.600000000000826        0.3193567935418585
51.62000000000083         0.29715000082059284
51.64000000000084         0.28012359499353584
51.660000000000835        0.2673880241646493
51.68000000000086         0.2582926207091386
51.70000000000086         0.25239402108379544
51.72000000000088         0.2494123762835502
51.74000000000087         0.24921142490639683
51.760000000000886        0.2517874988632901
51.780000000000896        0.2572693084098412
51.8000000000009          0.2659285000483253
51.82000000000092         0.27820160590492204
51.840000000000906        0.29472395960051667
51.86000000000092         0.31637333911427346
51.88000000000091         0.34430835056737946
51.90000000000093         0.3799376159113936
51.920000000000925        0.4245093995783915
51.940000000000936        0.478004770591061
51.96000000000094         0.5356726117399359
51.980000000000935        0.5869786657432654
52.00000000000094         0.6239901204337938
52.020000000000934        0.643742572055784
52.04000000000095         0.6494816154697459
52.06000000000094         0.6436029213965914
52.08000000000094         0.6236337558681408
52.100000000000975        0.586387453220334
52.12000000000097         0.5350569931987649
52.14000000000098         0.47731306686068337
52.160000000001           0.42359513097271706
52.180000000001016        0.37873800665595586
52.20000000000103         0.34287353096523016
52.22000000000103         0.3147047646888713
52.24000000000105         0.2928033589509807
52.26000000000104         0.276014735129746
52.28000000000106         0.26346161778902094
52.30000000000106         0.25450716325550893
52.320000000001066        0.2487120082883222
52.34000000000109         0.2458005460008185
52.36000000000108         0.24563888558254043
52.380000000001104        0.24822404087743546
52.4000000000011          0.2536837560020373
52.420000000001096        0.26228696553955966
52.440000000001135        0.27446549392586306
52.460000000001116        0.2908475475538681
52.48000000000113         0.31230171017693137
52.50000000000114         0.3399635900090397
52.52000000000114         0.3752194214530214
52.54000000000114         0.4193665005295501
52.560000000001146        0.47230253651627613
52.58000000000115         0.5293482579383431
52.60000000000112         0.5800780354528648
52.62000000000113         0.6166603362109276
52.640000000001116        0.6361743713654825
52.66000000000112         0.6418449917648014
52.680000000001115        0.6360477227386038
52.70000000000113         0.6163342723281137
52.72000000000115         0.5795389065390346
52.74000000000117         0.5288157790880124
52.760000000001185        0.4716236405720033
52.780000000001195        0.41853061840431977
52.800000000001205        0.3742145982514238
52.820000000001215        0.3387784567171864
52.840000000001226        0.3109257950030134
52.86000000000124         0.2892734446132541
52.880000000001225        0.2726800888555139
52.90000000000124         0.2602785828863876
52.92000000000125         0.25143952159208705
52.94000000000125         0.24572878735444423
52.96000000000128         0.24287422085090096
52.98000000000127         0.24274384968561247
53.00000000000128         0.2453352229432635
53.020000000001296        0.2507763515376398
53.0400000000013          0.2593323737632427
53.0600000000013          0.27143171298823077
53.08000000000131         0.287696231478325
53.10000000000133         0.3089837958987331
53.120000000001326        0.3364243410261209
53.14000000000133         0.37138771853706026
53.160000000001325        0.41515763360324764
53.180000000001336        0.46762969448431585
53.200000000001324        0.5241618041690295
53.22000000000133         0.5744199059089726
53.240000000001324        0.6106534371540632
53.26000000000131         0.629975917258193
53.28000000000132         0.6355922335263364
53.30000000000133         0.6298612320599335
53.320000000001336        0.6104219727486698
53.34000000000135         0.5740696499983432
53.360000000001364        0.5236932242302306
53.38000000000139         0.46703996978234624
53.400000000001405        0.41444028411808026
53.4200000000014          0.37053469891651936
53.44000000000142         0.3354272887786625
53.46000000000144         0.3078344768532964
53.480000000001446        0.2863864158204026
53.50000000000144         0.2699527665341934
53.52000000000145         0.2576747524345007
53.540000000001456        0.24892908198108465
53.560000000001466        0.24328535597478698
53.58000000000148         0.24047580143582714
53.60000000000148         0.24036899303699
53.62000000000148         0.2429629655163956
53.64000000000149         0.24838400150036913
53.660000000001496        0.25689691129592573
53.68000000000151         0.2689262767259393
53.70000000000152         0.2850890803709018
53.720000000001534        0.30623631862343376
53.74000000000153         0.33348871827204185
53.76000000000153         0.3682047830113557
53.780000000001536        0.41165706406790675
53.80000000000154         0.4637394498005786
53.82000000000152         0.5198401869727428
53.84000000000152         0.5695555171426456
53.860000000001506        0.6055706274900593
53.88000000000151         0.6247977874687537
53.90000000000152         0.6303664087355931
53.920000000001515        0.6246855903394907
53.940000000001525        0.6054122270390577
53.96000000000154         0.569361335114178
53.98000000000157         0.5193950449410093
54.0000000000016          0.46319463613732803
54.020000000001595        0.4110113395819704
54.040000000001605        0.36745205363171196
54.060000000001615        0.3326214796545281
54.080000000001625        0.305246955993648
54.10000000000164         0.2839699855023807
54.12000000000164         0.2676672073460311
54.140000000001656        0.25549230767567677
54.16000000000165         0.24682413967358385
54.18000000000166         0.241236399960972
54.200000000001666        0.2384621191152199
54.22000000000167         0.23837223266163907
54.240000000001686        0.24096508989304616
54.26000000000169         0.2463663279696429
54.28000000000169         0.2548390881435892
54.300000000001695        0.26680511374140203
54.320000000001706        0.282877148524582
54.34000000000174         0.30390024512735686
54.360000000001726        0.3309871820616314
54.38000000000173         0.36551493442331623
54.40000000000174         0.40873189072165617
54.420000000001735        0.46050077464684797
54.44000000000173         0.5161271411738496
54.46000000000172         0.5655081538570256
54.480000000001716        0.6012727253327643
54.50000000000171         0.6203631475622787
54.52000000000174         0.6258936444018777
54.54000000000171         0.6202597653333509
54.56000000000173         0.6011332141396942
54.58000000000176         0.5653443141665772
54.600000000001764        0.5157314684663953
54.6200000000018          0.45991717067260307
54.640000000001805        0.40808719584943287
54.660000000001816        0.3648498124651528
54.680000000001826        0.3302325986456005
54.700000000001836        0.3030357112398322
54.72000000000187         0.2819020743474505
54.74000000000185         0.26571457841789403
54.76000000000187         0.25362603493743474
54.78000000000186         0.24502225118350793
54.80000000000187         0.23947999353759578
54.820000000001876        0.23673425613343246
54.84000000000188         0.2366569992718822
54.8600000000019          0.2392467888737672
54.880000000001885        0.2446286722842439
54.9000000000019          0.2530643206942201
54.92000000000191         0.2649729960623622
54.940000000001916        0.2809611924576273
54.960000000001905        0.30187561617843267
54.98000000000192         0.32882375876132725
55.00000000000195         0.36315391799711366
55.020000000001936        0.4061272216937202
55.04000000000193         0.45759886527906596
55.06000000000194         0.5128986404662585
55.080000000001924        0.5619811689923778
55.100000000001906        0.5975248586413066
55.12000000000191         0.6164936072794924
55.14000000000191         0.6219884832211441
55.16000000000192         0.6163923717244901
55.18000000000193         0.5973896590983446
55.20000000000194         0.5616825057892334
55.220000000001974        0.5125139528742069
55.24000000000201         0.4571383585381666
55.260000000002           0.4055937517764608
55.280000000002026        0.36254453179284857
55.30000000000204         0.3281332562081194
55.32000000000203         0.3010981371493107
55.340000000002064        0.2800906138256862
55.36000000000205         0.26400055242811343
55.38000000000207         0.25198605508783384
55.40000000000208         0.24343678227903937
55.420000000002084        0.23793219236760368
55.440000000002094        0.23520901744480133
55.4600000000021          0.23514010708606098
55.48000000000212         0.23772356036453898
55.50000000000212         0.243084493126067
55.52000000000212         0.2514829956348207
55.54000000000213         0.2633361477140067
55.560000000002134        0.2792500917830261
55.580000000002165        0.3000614901151759
55.600000000002154        0.32687390011395334
55.620000000002165        0.36102791523508904
55.640000000002146        0.40377717805936436
55.66000000000215         0.4549764158754786
55.68000000000214         0.5099782794097655
55.70000000000213         0.5587903565471557
55.7200000000021          0.5941349126466978
55.7400000000021          0.612994965757258
55.76000000000211         0.6184585877773623
55.78000000000212         0.6128963832696634
55.80000000000213         0.5939393328917335
55.82000000000214         0.5585037763134247
55.84000000000217         0.5096113760477233
55.8600000000022          0.45454072494343795
55.88000000000221         0.4032766324863012
55.90000000000223         0.3604602796512167
55.92000000000224         0.32623447847810405
55.94000000000226         0.2993448256362091
55.96000000000227         0.2784504422642705
55.98000000000226         0.2624474851940891
56.00000000000228         0.2504988226483896
56.0200000000023          0.24199862988580104
56.040000000002294        0.23652618086730484
56.0600000000023          0.233821389941321
56.08000000000231         0.23375785256580314
56.100000000002325        0.23633427300597443
56.120000000002314        0.24167441990059166
56.14000000000232         0.2500372508685214
56.160000000002334        0.261837713812582
56.180000000002345        0.27767880890654173
56.20000000000236         0.2983928136238431
56.220000000002344        0.32507745267575927
56.24000000000236         0.3590661652054167
56.26000000000237         0.40160569220579206
56.280000000002346        0.45255050712559963
56.30000000000235         0.5072805565703683
56.32000000000233         0.555979083096593
56.34000000000233         0.5910645185875668
56.36000000000231         0.6097583335146602
56.38000000000231         0.6151934260675263
56.40000000000232         0.609664900660979
56.420000000002354        0.5908140811994282
56.44000000000235         0.5555686994561557
56.460000000002374        0.5069325711976209
56.480000000002406        0.4521428487280186
56.50000000000242         0.40113620806693356
56.52000000000245         0.35853333216460653
56.54000000000246         0.324477429952574
56.56000000000247         0.2977208408763652
56.580000000002485        0.27693220839753835
56.60000000000248         0.2610081863424048
56.620000000002484        0.24911830146783137
56.640000000002495        0.24065929736426134
56.660000000002505        0.23521531645205432
56.68000000000251         0.23252599579473907
56.700000000002525        0.23246563839003523
56.720000000002536        0.2350330281021618
56.74000000000253         0.24035134692868101
56.760000000002535        0.24867824613511977
56.780000000002545        0.260426607050492
56.80000000000255         0.27619643439982544
56.82000000000256         0.29681584743063194
56.84000000000255         0.3233704361434465
56.86000000000257         0.35717896018444595
56.880000000002575        0.39947617817200104
56.900000000002564        0.45015255678411403
56.920000000002545        0.5047112306536389
56.940000000002534        0.553168709889047
56.960000000002516        0.5880776635782585
56.98000000000251         0.6066754498424786
57.000000000002515        0.6120829521034948
57.020000000002526        0.606585157283839
57.04000000000255         0.5878339006972725
57.06000000000255         0.5527684815922066
57.080000000002585        0.5043759225496075
57.10000000000261         0.4498546868423509
57.120000000002634        0.39902598535921807
57.140000000002665        0.35666885290703454
57.16000000000267         0.32279689708215653
57.18000000000268         0.29617523981432897
57.20000000000272         0.2754846708653655
57.2200000000027          0.25963646704027454
57.2400000000027          0.24780349370338337
57.26000000000271         0.23938552239307068
57.280000000002715        0.23396878971690938
57.300000000002726        0.23129425914393684
57.32000000000274         0.23123690436320155
57.34000000000275         0.23379558537581932
57.36000000000275         0.23909296158039614
57.38000000000276         0.24738546980244056
57.40000000000276         0.2590862922666555
57.42000000000277         0.2747881741106678
57.44000000000279         0.2953154674814236
57.460000000002786        0.3217512758690315
57.48000000000279         0.3554079484699946
57.50000000000279         0.39751326473456905
57.520000000002774        0.4479573596587128
57.54000000000276         0.5022623614480253
57.56000000000274         0.5504897405295729
57.58000000000272         0.5852301412706012
57.6000000000027          0.603736035908237
57.62000000000271         0.609116817710573
57.64000000000271         0.6036476798774594
57.660000000002725        0.5850569324590876
57.68000000000275         0.5502370297877215
57.70000000000278         0.5019410288299723
57.72000000000283         0.44757736579008195
57.74000000000284         0.397078301120127
57.76000000000286         0.35491686820750973
57.780000000002886        0.3212006451622979
57.80000000000288         0.29470091929272557
57.82000000000291         0.27410490413837807
57.8400000000029          0.2583291472863696
57.86000000000291         0.2465505091166193
57.88000000000292         0.23817165867866052
57.900000000002926        0.23278083451601295
57.920000000002936        0.2301202649660984
57.94000000000295         0.23006573940675
57.96000000000296         0.23261619687160767
57.98000000000296         0.23789367962483346
58.00000000000297         0.24615351859390208
58.02000000000297         0.2578046021734735
58.040000000002976        0.27344080707423274
58.060000000003           0.29388099433211723
58.080000000003           0.3202032134861464
58.10000000000301         0.35371364139656253
58.120000000002996        0.39563413349725546
58.14000000000299         0.44585463253132845
58.160000000002974        0.4999161259452625
58.18000000000294         0.5479239203015791
58.200000000002916        0.5825042197633882
58.22000000000291         0.6009228101158031
58.24000000000291         0.6062797533431744
58.26000000000292         0.6008390281406448
58.28000000000293         0.5823371080725637
58.300000000002946        0.547680325222105
58.32000000000298         0.49960669662907126
58.340000000003016        0.4454889117506013
58.360000000003055        0.3952157756272801
58.380000000003065        0.3532417399557903
58.40000000000307         0.31967461927020846
58.4200000000031          0.29329159968251434
58.440000000003096        0.27278604390431455
58.46000000000312         0.25707954461611526
58.48000000000312         0.24535114923590307
58.500000000003126        0.23701017413705422
58.520000000003144        0.2316444111284767
58.54000000000313         0.22899732488814922
58.56000000000315         0.2289451846289513
58.58000000000317         0.23148702192610282
58.60000000000317         0.2367445507229405
58.62000000000316         0.2449720207789929
58.64000000000318         0.25657653901706645
58.66000000000319         0.2721493160300686
58.68000000000319         0.2925055330285978
58.7000000000032          0.31871841444437343
58.72000000000321         0.3520882674647384
58.74000000000321         0.39383131822490697
58.76000000000319         0.44392995946334557
58.78000000000318         0.49765882127214245
58.80000000000315         0.5453197014956107
58.820000000003134        0.5798190157255014
58.840000000003116        0.5982193801174094
58.86000000000312         0.6035518824036468
58.88000000000313         0.5981377000319211
58.900000000003125        0.5797222853784972
58.920000000003164        0.5452227539482256
58.94000000000318         0.49736327364742494
58.960000000003234        0.4434818499349586
58.980000000003244        0.39342571437269414
59.00000000000329         0.3516316451882929
59.020000000003286        0.3182077086155595
59.0400000000033          0.29193592212424296
59.06000000000332         0.27151551041113997
59.08000000000331         0.25587560922442215
59.100000000003334        0.24419911937153033
59.12000000000334         0.23589368506209926
59.14000000000335         0.2305512016108782
59.16000000000335         0.22791628610881406
59.18000000000335         0.22786577499060023
59.20000000000338         0.23039872972944378
59.220000000003374        0.2356363620125963
59.24000000000338         0.2438318524010463
59.260000000003394        0.2553905837320019
59.2800000000034          0.2709012090781715
59.30000000000341         0.29117450370465947
59.3200000000034          0.31728794096551904
59.34000000000343         0.35054144155585565
59.36000000000342         0.39215196194302465
59.38000000000341         0.4419733133759758
59.40000000000338         0.49547488094226905
59.42000000000336         0.5429307919114665
59.440000000003344        0.5772799215926565
59.46000000000334         0.5955988186958036
59.48000000000332         0.6009080261240903
59.50000000000333         0.595519592721275
59.52000000000334         0.5771877987791805
59.54000000000337         0.5428404809136793
59.5600000000034          0.49518851847782935
59.58000000000344         0.4416286170560357
59.60000000000346         0.3917588887309801
59.620000000003486        0.3500993223579946
59.6400000000035          0.3167938039161109
59.66000000000351         0.2906244547431273
59.680000000003524        0.2702884490900853
59.700000000003534        0.254713111252568
59.72000000000355         0.243084904844233
59.74000000000354         0.23481405414503773
59.76000000000355         0.22949423303021807
59.78000000000356         0.22687117630197848
59.800000000003564        0.2268222692795743
59.82000000000359         0.22934659914670896
59.84000000000358         0.23456488285568597
59.86000000000359         0.24272761390977343
59.880000000003584        0.25424112837745083
59.9000000000036          0.2696910250883392
59.92000000000361         0.2898868606088871
59.94000000000363         0.3158963105641776
59.96000000000364         0.34901613348089344
59.98000000000362         0.3904579147178668
60.00000000000362         0.4400755540042558
60.02000000000359         0.4933563764176421
60.04000000000357         0.5406143953858407
60.06000000000351         0.5748191949858372
60.08000000000354         0.593060582423375
60.10000000000353         0.5983481641791438
60.12000000000353         0.5929843385512658
60.140000000003546        0.5746690666386409
60.16000000000356         0.5403955360656851
60.1800000000036          0.49307776961439065
60.20000000000364         0.4397456365820281
60.22000000000367         0.3900803340802497
60.2400000000037          0.3485904399481083
60.26000000000371         0.3154199031257743
60.280000000003724        0.2893561760115798
60.30000000000373         0.2691020003618422
60.32000000000374         0.2535892598391068
60.34000000000376         0.24200786892804982
60.360000000003765        0.23377055353426293
60.38000000000377         0.22847271294900992
60.40000000000377         0.22586133603795872
60.42000000000378         0.22581366009395906
60.4400000000038          0.22832928574731237
60.46000000000379         0.2335283982040412
60.4800000000038          0.24166208684500132
60.50000000000381         0.25313250871131787
60.52000000000382         0.268523937893702
60.540000000003815        0.28864264793907396
60.56000000000383         0.3145519150060072
60.58000000000384         0.3475431353481551
60.60000000000383         0.38882279406329345
60.62000000000383         0.4382447030302299
60.6400000000038          0.4913124543013038
60.66000000000378         0.538377441938933
60.68000000000374         0.5725057532466926
60.70000000000374         0.5906048493964781
60.72000000000373         0.5958689132692838
60.74000000000373         0.5905286882292927
60.76000000000374         0.572291579715778
60.78000000000378         0.538160800357787
60.80000000000381         0.4910372919393408
60.82000000000385         0.43792072688228195
60.84000000000388         0.38845421115685647
60.86000000000391         0.3471294082187547
60.880000000003925        0.31409027207511797
60.900000000003935        0.2881294279950366
60.920000000003945        0.2679550224542875
60.940000000003955        0.25250559462534927
60.96000000000397         0.24096930693373478
60.980000000003976        0.2327642096822054
61.00000000000398         0.22748747609083741
61.02000000000399         0.22488695941503817
61.040000000004014        0.22484104246540226
61.06000000000401         0.22734880795672496
61.080000000004006        0.23252998493981591
61.100000000004016        0.24063468139853764
61.12000000000401         0.2520634695454913
61.140000000004044        0.26739831795395796
61.16000000000405         0.2874423160521025
61.18000000000404         0.31325449346092626
61.20000000000406         0.34612101568785086
61.22000000000405         0.3871763023078921
61.24000000000403         0.43638420902046565
61.260000000004           0.48934302637254784
61.28000000000398         0.5363550554478311
61.30000000000395         0.5702087659558991
61.32000000000393         0.5882345338341494
61.34000000000392         0.5934773958792056
61.36000000000393         0.5881598038847923
61.380000000003946        0.56999748982649
61.40000000000398         0.5360038810225995
61.42000000000402         0.4890675081969617
61.440000000004055        0.4361593306388646
61.46000000000409         0.386885285372279
61.48000000000412         0.34572035892596553
61.50000000000413         0.3128020249708601
61.52000000000415         0.28694801609178705
61.54000000000415         0.2668524623954789
61.56000000000416         0.25145970849601396
61.580000000004176        0.23996768598855533
61.60000000000417         0.2317943483219124
61.62000000000419         0.2265384938583613
61.640000000004186        0.2239490116310444
61.6600000000042          0.22390480044931085
61.68000000000422         0.22640497501119647
61.70000000000422         0.23156882309646748
61.72000000000422         0.2396455046394025
61.74000000000422         0.25103405964208064
61.76000000000424         0.2663166639570063
61.78000000000424         0.28628680647597754
61.80000000000425         0.31199793015759847
61.82000000000427         0.3447234858727022
61.84000000000425         0.38565407439858523
61.86000000000425         0.43467880419874255
61.88000000000421         0.487438449866244
61.900000000004184        0.5342710882799857
61.92000000000415         0.5679942050731644
61.940000000004154        0.5859494992079596
61.960000000004136        0.5911722069950548
61.98000000000414         0.5858768535606078
62.00000000000414         0.5677872114380981
62.02000000000418         0.5339263417640568
62.04000000000423         0.4871766462192556
62.06000000000426         0.43437277687682707
62.08000000000429         0.3853081363147488
62.100000000004336        0.34433705201853404
62.12000000000433         0.31156826213420086
62.140000000004356        0.2858103015073291
62.16000000000435         0.265789258853297
62.18000000000436         0.25045358662273615
62.20000000000439         0.23900433281453717
62.22000000000437         0.23086170979263812
62.24000000000437         0.22562607302849683
62.2600000000044          0.22304729672501028
62.2800000000044          0.22300478320389214
62.300000000004424        0.22549769216831803
62.320000000004406        0.23064591231895415
62.34000000000444         0.23869623165828965