% Model:              Untitled.mph
% Version:            COMSOL 5.6.0.280
% Date:               Oct 15 2021, 18:05
% Dimension:          1
% Nodes:              994
% Expressions:        1
% Description:        线图
% cln1x                   Height
49.24999999999999         0.29496457825862055
49.260000000000076        0.2935441436288485
49.280000000000086        0.2928019270167639
49.300000000000104        0.29491621686491026
49.32000000000011         0.30009163680919015
49.34000000000012         0.3087046673976508
49.36000000000011         0.3213376979141291
49.38000000000013         0.33882313684304755
49.400000000000134        0.3622836634515494
49.420000000000144        0.39311135789374163
49.440000000000154        0.43267879277091215
49.460000000000164        0.4812481481143172
49.48000000000015         0.5346577537308828
49.50000000000016         0.5834916963981231
49.520000000000174        0.6196837352854412
49.540000000000205        0.6396139056152673
49.560000000000194        0.6454115431080799
49.58000000000019         0.6390855909239179
49.60000000000019         0.6185867097635167
49.62000000000021         0.5816455051479454
49.6400000000002          0.5316780553566905
49.66000000000021         0.4769440730229001
49.680000000000234        0.4269776984615458
49.70000000000021         0.385732271311075
49.72000000000022         0.3530657481524786
49.74000000000024         0.32761530974982955
49.760000000000254        0.3079805550129313
49.78000000000025         0.2930187148671423
49.80000000000025         0.28186422015130136
49.82000000000027         0.27389243327995766
49.840000000000266        0.26867437047960724
49.86000000000028         0.2659416950627837
49.88000000000028         0.26556374558067536
49.90000000000029         0.26753616394922064
49.92000000000031         0.2719807275616487
49.940000000000296        0.27915592993842697
49.96000000000031         0.289478832923096
49.98000000000032         0.3035588017923803
50.00000000000033         0.3222399289736099
50.02000000000034         0.3466501023441202
50.04000000000033         0.3781647781724056
50.060000000000365        0.4181205009669343
50.08000000000035         0.46661484582627083
50.10000000000036         0.5196385521120035
50.12000000000035         0.5678582798645451
50.140000000000356        0.6034663734521363
50.160000000000366        0.6230171506531481
50.18000000000036         0.6287231267523508
50.20000000000038         0.6226246469264667
50.22000000000038         0.6027169329751103
50.240000000000386        0.5667081871101732
50.260000000000396        0.5178888786236042
50.280000000000406        0.46436797716979233
50.300000000000416        0.41532325278948246
50.320000000000405        0.3747851116180964
50.34000000000043         0.34266615441227655
50.36000000000043         0.31763878933048617
50.38000000000044         0.29833177878024236
50.400000000000446        0.28362592501146716
50.42000000000046         0.2726764921968579
50.44000000000047         0.2648734581328786
50.46000000000046         0.25979780729832863
50.48000000000047         0.2571876800931122
50.500000000000476        0.25691636720068517
50.520000000000486        0.25898151713411716
50.54000000000049         0.2635048843207166
50.56000000000051         0.2707411398611708
50.58000000000051         0.2811042189965567
50.60000000000052         0.2951935092985302
50.62000000000053         0.31384014361525975
50.640000000000526        0.33814449861486645
50.66000000000054         0.36945298701871804
50.68000000000056         0.4090647315245872
50.70000000000054         0.4570470613524053
50.72000000000055         0.5094010105766973
50.740000000000556        0.5568968932501676
50.76000000000056         0.5919003171213576
50.78000000000056         0.6110680376410639
50.800000000000566        0.6166490837181912
50.82000000000058         0.6106785634580129
50.84000000000057         0.5911104012152407
50.860000000000575        0.555693194058089
50.88000000000058         0.5077781859540828
50.9000000000006          0.45499334368847333
50.92000000000062         0.4065604867556189
50.94000000000062         0.3664800941502934
50.96000000000063         0.3346903914597203
50.980000000000636        0.3098970421555311
51.00000000000064         0.29075729180963344
51.02000000000065         0.27617323044888403
51.04000000000065         0.26531508150905286
51.06000000000068         0.2575829488599742
51.080000000000666        0.252564408470474
51.10000000000067         0.2500017122882986
51.12000000000067         0.24976957426906754
51.14000000000069         0.2518662470427647
51.16000000000069         0.2564119059967063
51.1800000000007          0.2636590805615477
51.20000000000071         0.2740133766981266
51.22000000000071         0.28806536912514535
51.24000000000071         0.30663171681244594
51.26000000000073         0.3307922723719414
51.28000000000072         0.36186666982903115
51.30000000000074         0.40112356439570496
51.32000000000075         0.44860502474674074
51.34000000000075         0.5003220657632327
51.36000000000075         0.5471393631532584
51.380000000000734        0.5816447369136293
51.40000000000074         0.600399284487609
51.42000000000074         0.6058632670941454
51.440000000000765        0.6000113490040467
51.46000000000077         0.5808059163197089
51.48000000000077         0.5459702132456173
51.50000000000078         0.49876968006593553
51.52000000000079         0.44667618750065646
51.540000000000816        0.3988120242802094
51.56000000000083         0.3591608328976233
51.58000000000084         0.32768224605030344
51.60000000000083         0.30311108792046915
51.62000000000085         0.28413009537355427
51.64000000000084         0.2696607245031988
51.66000000000085         0.258888383508214
51.68000000000085         0.2512193480069187
51.70000000000087         0.24624941326882022
51.72000000000089         0.2437244252306165
51.74000000000088         0.24352138785900143
51.760000000000886        0.24563821509899478
51.7800000000009          0.2501935035722908
51.800000000000885        0.2574362859753878
51.82000000000092         0.2677662481089686
51.840000000000906        0.28176482410575787
51.860000000000916        0.3002353567418983
51.880000000000926        0.32423918377833105
51.90000000000094         0.3550718755575158
51.92000000000093         0.3939144503596297
51.94000000000094         0.4408818481097243
51.960000000000946        0.4920708205205042
51.98000000000094         0.5383820317874364
52.00000000000094         0.5722620475690977
52.020000000000934        0.590699513716807
52.04000000000095         0.596063960835963
52.06000000000094         0.5903239798050994
52.08000000000096         0.5714538817118581
52.10000000000098         0.5371558672370299
52.12000000000098         0.49061855616132655
52.140000000000995        0.4391713084109141
52.160000000001           0.3918435305446283
52.18000000000104         0.3526013300952348
52.20000000000103         0.32141707671240205
52.22000000000105         0.29706822407120015
52.24000000000106         0.2782441118695385
52.26000000000104         0.26388720907191965
52.28000000000106         0.25319556753762396
52.30000000000107         0.24558798956718234
52.32000000000107         0.24066420181880957
52.34000000000109         0.23817364875452918
52.36000000000108         0.23799509509199604
52.380000000001104        0.24012660302666095
52.40000000000111         0.24468532360842313
52.42000000000112         0.25191707020401805
52.44000000000114         0.26221614663753545
52.46000000000112         0.27615581176748144
52.48000000000113         0.2945284516900568
52.50000000000115         0.31837106776889673
52.52000000000115         0.34895298466414165
52.54000000000114         0.3874845613519934
52.560000000001146        0.43399747941279015
52.58000000000116         0.48462422915699294
52.600000000001124        0.5303462634050896
52.62000000000113         0.5637452927197242
52.64000000000112         0.5818833471455461
52.66000000000113         0.5871500522125239
52.68000000000113         0.5815052123483222
52.700000000001125        0.5629326795135485
52.72000000000114         0.5291206522732371
52.74000000000116         0.4831808587872716
52.760000000001185        0.4322606826002999
52.7800000000012          0.38546709182210126
52.80000000000121         0.3466519876905061
52.82000000000125         0.3157795773514271
52.84000000000124         0.2916400167932106
52.86000000000126         0.2729670635454059
52.880000000001246        0.2587195847882083
52.90000000000125         0.24810755527937917
52.92000000000126         0.2405580930910447
52.94000000000126         0.23567646507873602
52.96000000000128         0.23321550601567995
52.98000000000128         0.23305562437410648
53.00000000000127         0.2351949810499226
53.02000000000129         0.23975022050348707
53.0400000000013          0.24696272171710673
53.06000000000132         0.2572221139159588
53.08000000000131         0.2710936599863091
53.10000000000133         0.28935669114183227
53.120000000001326        0.31303770256503144
53.14000000000133         0.3433839856004673
53.16000000000133         0.38158371762104526
53.180000000001336        0.42765371966863786
53.20000000000134         0.4777429137314041
53.22000000000133         0.5229131973674148
53.24000000000134         0.5558677467973473
53.26000000000132         0.5737348112286026
53.28000000000132         0.578919814501075
53.300000000001326        0.5733786603500055
53.32000000000134         0.5551601868229983
53.34000000000136         0.5218712303849158
53.360000000001385        0.47640209700500724
53.38000000000139         0.4260434976232262
53.400000000001405        0.3797168631513265
53.420000000001416        0.3412621476294197
53.440000000001426        0.31065777156298613
53.460000000001436        0.286714124808961
53.48000000000145         0.26818334999391447
53.500000000001464        0.25403877377543294
53.52000000000147         0.24350100664339175
53.54000000000147         0.23600465076270122
53.56000000000147         0.23115954198011934
53.58000000000149         0.22872276814286868
53.60000000000149         0.228575380746973
53.62000000000149         0.2307155836771488
53.6400000000015          0.2352576927254675
53.66000000000151         0.2424413828433866
53.680000000001506        0.2526508416760576
53.700000000001516        0.266444124037152
53.720000000001534        0.28459042629055736
53.74000000000154         0.30810221400107085
53.76000000000154         0.33820866801533
53.78000000000154         0.37607787360220424
53.80000000000154         0.421713473659003
53.82000000000152         0.47127961551329667
53.840000000001524        0.5158000869654307
53.860000000001506        0.5483761453235838
53.880000000001495        0.5660368955409099
53.90000000000151         0.5711402777102883
53.920000000001515        0.5656882732782602
53.94000000000152         0.5477415821874413
53.96000000000155         0.5148947584094276
53.98000000000156         0.469977563914201
54.000000000001606        0.42016463171382823
54.020000000001595        0.37429964069775684
54.040000000001605        0.33620466752622946
54.060000000001615        0.30586972786188066
54.080000000001625        0.28212420082442313
54.10000000000166         0.2637378116857754
54.120000000001646        0.24969588159278586
54.14000000000165         0.23923368943505918
54.16000000000166         0.2317905803826324
54.18000000000168         0.2269816292616949
54.20000000000168         0.2245657148648363
54.22000000000169         0.22442610979947125
54.24000000000169         0.226560958659678
54.260000000001696        0.23108308489026236
54.28000000000169         0.2382290906047348
54.30000000000171         0.24837821755696127
54.3200000000017          0.2620812937398622
54.340000000001744        0.280097522325515
54.36000000000174         0.3034259386733889
54.380000000001736        0.33330189693977175
54.40000000000174         0.37086316523549684
54.42000000000174         0.4160792647162311
54.44000000000174         0.46504374748873023
54.4600000000017          0.5090355342767768
54.48000000000171         0.5411981544347506
54.50000000000172         0.5586101817428607
54.52000000000173         0.5636384890428666
54.54000000000171         0.558275969114084
54.560000000001736        0.5405946787943534
54.58000000000174         0.5081798032746484
54.600000000001764        0.463803673462158
54.620000000001816        0.4145284985479161
54.640000000001805        0.3691214206450795
54.66000000000182         0.33140904283602024
54.680000000001826        0.30132778277778843
54.700000000001836        0.2777771824140876
54.72000000000186         0.2595368370368014
54.740000000001864        0.24560399738035907
54.76000000000186         0.23521818818476062
54.780000000001856        0.2278278941274615
54.800000000001866        0.22305290114594883
54.82000000000188         0.22065495779596805
54.84000000000189         0.2205186572343368
54.860000000001904        0.2226420600163015
54.8800000000019          0.22713650573528657
54.9000000000019          0.2342355779459682
54.920000000001934        0.24431369375484277
54.940000000001916        0.25791247253378724
54.960000000001955        0.2757872124526618
54.98000000000194         0.2989256299472566
55.00000000000195         0.32853067877292474
55.020000000001936        0.36573995878857596
55.040000000001946        0.41050682033267966
55.060000000001935        0.4589413623025622
55.080000000001924        0.5023972491478509
55.10000000000192         0.5341320572186663
55.12000000000192         0.5512810367025921
55.140000000001905        0.5562252691199757
55.16000000000192         0.5509481152844533
55.18000000000193         0.5335312102137811
55.20000000000194         0.5014373286334007
55.22000000000198         0.4577222147844894
55.24000000000201         0.40906803289419574
55.260000000002016        0.36410269429415626
55.280000000002026        0.3267005158446402
55.30000000000206         0.29689943963383275
55.320000000002054        0.2735576372510887
55.34000000000207         0.25547072448365266
55.36000000000208         0.24164878163761652
55.380000000002084        0.23134089103591735
55.400000000002066        0.2240023177237018
55.42000000000209         0.21925738075777357
55.4400000000021          0.21687052927556488
55.46000000000211         0.2167274947642208
55.48000000000213         0.21882553618861453
55.500000000002125        0.22327486495492233
55.52000000000214         0.230305546093318
55.54000000000214         0.24028690379520548
55.56000000000215         0.25375568857483793
55.580000000002165        0.27145248324833465
55.60000000000216         0.2943536639401779
55.62000000000217         0.3236461121658149
55.64000000000217         0.3604508976643435
55.660000000002164        0.40471266591564736
55.68000000000215         0.4525640136974835
55.70000000000214         0.49544228936945217
55.72000000000212         0.5267214478265246
55.740000000002105        0.5435941747740841
55.7600000000021          0.5484516487059913
55.780000000002104        0.5432654454741226
55.80000000000213         0.5260749349249084
55.82000000000214         0.49450158257118304
55.84000000000217         0.4513709726332355
55.86000000000221         0.4033064562888393
55.88000000000223         0.358852133292119
55.90000000000223         0.3218591092479841
55.920000000002254        0.2923733861277697
55.94000000000226         0.26926981434099273
55.960000000002275        0.25136008106359636
55.98000000000227         0.2376671899501134
56.000000000002295        0.22744991563837552
56.02000000000229         0.2201713103692702
56.04000000000231         0.215458298422744
56.06000000000232         0.21307937983114186
56.080000000002315        0.21292128963454335
56.10000000000234         0.21498126990924415
56.12000000000233         0.2193668812537219
56.14000000000233         0.22630470506445255
56.16000000000235         0.23615844321363827
56.180000000002345        0.24945684856649794
56.200000000002376        0.2669296216896044
56.22000000000237         0.28953898184153787
56.24000000000237         0.3184548182368624
56.26000000000235         0.35478144645766496
56.28000000000235         0.3984569333111536
56.300000000002356        0.4456396604425346
56.32000000000234         0.4879821156671037
56.34000000000232         0.5186945702528629
56.36000000000231         0.5352024262121424
56.38000000000231         0.539962072987965
56.40000000000232         0.534878465262699
56.420000000002354        0.5180032541186245
56.44000000000235         0.4869477851744557
56.460000000002374        0.4444751616609759
56.4800000000024          0.3970810607936344
56.50000000000243         0.35321544867784055
56.520000000002454        0.3167013472352394
56.54000000000246         0.28759167940032127
56.560000000002475        0.26477822296731457
56.5800000000025          0.24709128379708659
56.60000000000249         0.23356303974745343
56.62000000000249         0.2234645111487838
56.64000000000251         0.21626575965342107
56.66000000000251         0.21160102485041538
56.68000000000252         0.2092407287786436
56.700000000002525        0.2090730563874271
56.72000000000254         0.21109493449104397
56.74000000000253         0.21541194938823105
56.76000000000256         0.22224697110342895
56.78000000000255         0.2319579763247108
56.800000000002555        0.24506556243171074
56.82000000000258         0.2622883494882279
56.84000000000256         0.28456882168909076
56.86000000000257         0.3130528482456872
56.880000000002575        0.3488230571982545
56.90000000000257         0.39184048530032584
56.92000000000255         0.43838596010995184
56.94000000000255         0.4800253916085682
56.96000000000253         0.5101877498013465
56.98000000000252         0.526363758139843
57.000000000002515        0.5310186197157192
57.02000000000251         0.5260436874873812
57.04000000000255         0.509504619698433
57.06000000000255         0.47900282693457263
57.080000000002585        0.4372362966891833
57.100000000002616        0.39056593197521944
57.12000000000265         0.3472843751771997
57.14000000000267         0.31133033163629975
57.16000000000268         0.28265540985597365
57.180000000002686        0.2601735138342975
57.20000000000273         0.24273639615954828
57.2200000000027          0.22939796654838243
57.24000000000271         0.21943936688816512
57.26000000000271         0.21233849299868732
57.28000000000271         0.2077348816150784
57.30000000000274         0.20540222369302255
57.32000000000274         0.20523041747509962
57.34000000000276         0.2072165555005431
57.36000000000275         0.21146447672078075
57.38000000000277         0.21819332369279268
57.400000000002784        0.22775715565921778
57.42000000000277         0.24066467822493698
57.44000000000279         0.25762343891676753
57.4600000000028          0.27956349939434444
57.4800000000028          0.3076134163648427
57.5000000000028          0.3428381288533325
57.52000000000279         0.3851938101679218
57.54000000000277         0.43099575952689995
57.560000000002745        0.4719154154928277
57.58000000000272         0.5015194568041123
57.60000000000271         0.5173633556944665
57.62000000000272         0.521916546298141
57.6400000000027          0.5170551421217411
57.66000000000275         0.5009156149211362
57.680000000002764        0.47103847968664997
57.70000000000278         0.42988594521513374
57.72000000000283         0.38388471953980663
57.74000000000285         0.3413458028065319
57.76000000000287         0.30593982508195705
57.78000000000289         0.27770199515890337
57.80000000000289         0.25556265338210765
57.82000000000292         0.23839075471819124
57.84000000000291         0.22525460401457642
57.86000000000291         0.2154463898098081
57.88000000000292         0.20845205653597276
57.90000000000294         0.2039166546036399
57.92000000000294         0.20161722991603123
57.940000000002954        0.2014453214416371
57.96000000000297         0.20339796961796314
57.98000000000297         0.20757759652302002
58.00000000000297         0.21420006978920397
58.02000000000298         0.22361179427210345
58.04000000000298         0.23631647227572752
58.06000000000301         0.2530090993391154
58.080000000003004        0.2746052816757298
58.10000000000301         0.3022163157372486
58.120000000003           0.3368904847171006
58.14000000000299         0.37857952421193836
58.16000000000298         0.4236341319108029
58.180000000002956        0.46383251608105214
58.20000000000292         0.49287859701246434
58.22000000000292         0.5083905854334748
58.240000000002915        0.5128436879963556
58.26000000000293         0.5080952078415031
58.28000000000294         0.492296063189039
58.30000000000295         0.4629859524859325
58.320000000003           0.42256172847673695
58.340000000003016        0.37731292968390123
58.36000000000305         0.33544544745855964
58.380000000003086        0.3005951199042575
58.40000000000309         0.2728012158027648
58.42000000000311         0.2510105698747897
58.44000000000313         0.23410937343708052
58.46000000000312         0.22118032200713314
58.48000000000312         0.211525374824945
58.50000000000313         0.2046416133145699
58.52000000000315         0.20017780117398548
58.540000000003154        0.19791447123707945
58.56000000000316         0.19774461462344653
58.580000000003174        0.19966513610943473
58.60000000000316         0.20377676286592797
58.62000000000318         0.2102921888481685
58.640000000003184        0.2195526860602927
58.660000000003194        0.23205403072130074
58.68000000000321         0.24848017914930046
58.7000000000032          0.26973242390384544
58.72000000000321         0.29690500496967465
58.74000000000321         0.3310298520460052
58.760000000003195        0.37213085310317207
58.780000000003184        0.41636442558154024
58.80000000000315         0.455738584802807
58.82000000000311         0.48429287752014677
58.84000000000314         0.4995349873891676
58.860000000003126        0.5038888853017581
58.88000000000313         0.49924978190863434
58.90000000000316         0.4837850028659499
58.92000000000317         0.4550334499055746
58.9400000000032          0.41532996407495887
58.96000000000325         0.3708302267669616
58.98000000000325         0.32963331086447767
59.00000000000328         0.2953381435483626
59.0200000000033          0.26798786943848696
59.04000000000332         0.24654521751779385
59.06000000000334         0.22991365212850431
59.08000000000333         0.21719220396120598
59.10000000000334         0.2076939444171314
59.120000000003344        0.20092057416700032
59.140000000003354        0.19652821768820392
59.16000000000335         0.19430088248344474
59.18000000000336         0.19413319667210924
59.20000000000338         0.19602194743360415
59.22000000000338         0.20006592554179695
59.240000000003384        0.2064740735151725
59.26000000000339         0.21558227401433697
59.2800000000034          0.22787880576756725
59.30000000000338         0.2440361962902844
59.320000000003425        0.2649486620689956
59.34000000000343         0.29169754900510236
59.36000000000342         0.32530352697614745
59.380000000003406        0.36568303849531036
59.40000000000338         0.4091774102522821
59.42000000000337         0.4478515976857726
59.44000000000334         0.47587119787261467
59.46000000000334         0.4908013079475102
59.48000000000333         0.49505983501943934
59.500000000003325        0.49052095748730684
59.52000000000335         0.47537110559774104
59.540000000003374        0.44715881830970966
59.560000000003406        0.40816255496282533
59.580000000003444        0.3644858119051769
59.600000000003476        0.3239443659942274
59.6200000000035          0.2901762013793849
59.64000000000353         0.2632557272689963
59.66000000000352         0.24215828801414666
59.680000000003524        0.22579856731466166
59.70000000000354         0.2132850841486601
59.72000000000355         0.2039420474940605
59.74000000000355         0.1972792743565253
59.76000000000356         0.1929584988343441
59.78000000000356         0.19076723999539905
59.800000000003564        0.19060180581711814
59.82000000000358         0.19245894688474657
59.840000000003585        0.19643565245818137
59.8600000000036          0.20273579621836493
59.880000000003584        0.21169137778838942
59.9000000000036          0.22378206785797186
59.92000000000362         0.23967155260206907
59.940000000003614        0.2602354596953952
59.96000000000364         0.28653933912460205
59.98000000000365         0.31958677195808244
60.00000000000362         0.3592927956711136
60.0200000000036          0.40204843084249464
60.04000000000358         0.4400401186779416
60.06000000000355         0.46754879936765076
60.080000000003544        0.4821907704743195
60.100000000003526        0.48636350005794315
60.12000000000353         0.48191499313850994
60.140000000003546        0.4670039394350428
60.16000000000358         0.43924867438429216
60.1800000000036          0.40104774511042107
60.20000000000365         0.3581215176640389
60.22000000000368         0.3182616720675805
60.2400000000037          0.2850582295746122
60.260000000003714        0.2585873717864928
60.280000000003724        0.2378421098545698
60.30000000000373         0.22175534287237253
60.32000000000375         0.20945047599236297
60.34000000000376         0.2002630203893892
60.36000000000376         0.1937110394205556
60.38000000000376         0.18946200886872921
60.40000000000378         0.1873071824474186
60.42000000000378         0.18714410642720006
60.440000000003806        0.18896989360127642
60.460000000003795        0.19287978425089958
60.48000000000381         0.19907533031030092
60.50000000000382         0.20788064116925287
60.520000000003805        0.21976760544941376
60.54000000000382         0.2353884958194692
60.56000000000382         0.2556045753108927
60.58000000000384         0.281463705328925
60.60000000000383         0.31395230588999956
60.620000000003834        0.35298497915403443
60.6400000000038          0.3950072289687272
60.660000000003784        0.43233197677361074
60.680000000003744        0.4594003457467987
60.70000000000374         0.4737202488534837
60.72000000000373         0.4778151189912683
60.74000000000374         0.47345621085697875
60.76000000000376         0.45882990852905375
60.78000000000378         0.4315788648191477
60.80000000000382         0.3940537082697458
60.820000000003866        0.35186455123201427
60.8400000000039          0.31267877032076946
60.860000000003915        0.2800343625694805
60.880000000003925        0.2540088236592114
60.900000000003956        0.23361251279815173
60.920000000003974        0.2177962500292617
60.94000000000397         0.20569989504785918
60.96000000000397         0.1966662745994295
60.980000000003976        0.19022380379619752
61.000000000003986        0.18604561733933794
61.02000000000399         0.1839263873847732
61.04000000000399         0.18376593924115844
61.06000000000403         0.18556109550730934
61.08000000000401         0.18940544350067964
61.10000000000402         0.19549704162282103
61.12000000000403         0.20415437951580698
61.140000000004044        0.21584106092610267
61.16000000000406         0.2311977690641384
61.18000000000405         0.25107079547615335
61.20000000000407         0.2764904293177118
61.220000000004056        0.30837439265394406
61.24000000000403         0.34672219446295316
61.260000000004           0.3880973565341156
61.28000000000399         0.42487434182930506
61.300000000003955        0.45135602119778573
61.320000000003944        0.46541749820522127
61.340000000003926        0.4694389933053113
61.360000000003936        0.4651639373738864
61.380000000003946        0.45080702415858237
61.40000000000398         0.4240429275414497
61.42000000000402         0.38717667755459134
61.44000000000406         0.3457145802965463
61.460000000004094        0.30719750371828214
61.48000000000412         0.27510824582597215
61.50000000000414         0.2495199053457637
61.52000000000417         0.22947518395519437
61.540000000004156        0.21392838143058077
61.56000000000417         0.2020353066489311
61.58000000000418         0.1931549200703129
61.60000000000419         0.18682180165733211
61.62000000000419         0.18271464404772508
61.64000000000419         0.18063162654769638
61.6600000000042          0.18047431746882248
61.68000000000423         0.18223971076558682
61.700000000004216        0.1860199532174352
61.72000000000422         0.19200975760716288
61.74000000000423         0.20052213511331324
61.76000000000425         0.212014565432359
61.78000000000425         0.22711163545250945
61.800000000004246        0.2466436209700352
61.820000000004256        0.2716170486462089
61.84000000000427         0.30298032403755437
61.86000000000425         0.34067575976885156
61.88000000000421         0.38134261428030986
61.900000000004205        0.4174822328758847
61.92000000000415         0.44350028329654473
61.940000000004154        0.45731203674466525
61.960000000004136        0.4612630352512938
61.98000000000414         0.4570687180164566
62.000000000004164        0.4429720841650276
62.02000000000419         0.4166811716288986
62.04000000000423         0.380461486905571
62.06000000000425         0.3396378116302154
62.0800000000043          0.3017957447093813
62.100000000004336        0.27028216652503967
62.12000000000435         0.24514841792831002
62.14000000000436         0.22544381834194627
62.160000000004366        0.21016068908048482
62.18000000000437         0.19846925504902047
62.200000000004394        0.18973950339398832
62.22000000000439         0.18351404096555962
62.24000000000439         0.17947706028961302
62.260000000004396        0.17743011925803032
62.28000000000441         0.17727638118080047
62.30000000000443         0.17901290999932995
62.32000000000443         0.1827311895200564