% Model:              Untitled.mph
% Version:            COMSOL 5.6.0.280
% Date:               Oct 15 2021, 18:05
% Dimension:          1
% Nodes:              994
% Expressions:        1
% Description:        线图
% cln2x                   Height
21.91                     0.15054255783989853
21.920000000000027        0.15076976911852377
21.94000000000003         0.15244245492107308
21.96000000000003         0.1558151732177692
21.980000000000036        0.16105512804225194
22.00000000000004         0.1684294695803716
22.020000000000042        0.1783257833871822
22.040000000000045        0.1912783031146184
22.060000000000045        0.2079907971684656
22.080000000000048        0.22931791172596214
22.100000000000048        0.2560651813779264
22.12000000000006         0.2882426310503815
22.140000000000054        0.3228131320617496
22.16000000000005         0.35350968890617995
22.180000000000042        0.3757584246331296
22.20000000000005         0.38765330722853664
22.22000000000005         0.3911629920710013
22.240000000000055        0.3877873153257966
22.260000000000062        0.37606333032048167
22.280000000000076        0.3539798365333257
22.300000000000065        0.3232940641186715
22.320000000000068        0.28873807517454986
22.340000000000067        0.25668877268600004
22.360000000000074        0.23001068146324433
22.38000000000007         0.20875666042056182
22.40000000000007         0.1921225603002435
22.420000000000076        0.17925486371544852
22.440000000000087        0.16945212219565092
22.46000000000009         0.16217951020821406
22.480000000000093        0.15704946378887039
22.500000000000092        0.15379547024207785
22.520000000000092        0.15225152574346315
22.54000000000009         0.15233873976043305
22.560000000000088        0.15405885977480854
22.58000000000009         0.15749438242732444
22.6000000000001          0.16281521882301495
22.620000000000104        0.17029222951589637
22.640000000000107        0.1803179648538401
22.6600000000001          0.1934326496863647
22.680000000000106        0.2103541521956019
22.700000000000113        0.23195057271888694
22.720000000000105        0.25904083585405524
22.74000000000011         0.2915522324259619
22.76000000000011         0.32652603869856295
22.78000000000011         0.35757946619634684
22.800000000000107        0.3800859423817265
22.820000000000107        0.392117866582673
22.840000000000114        0.3956666035150744
22.860000000000113        0.3922497376242319
22.880000000000116        0.38038843217914636
22.900000000000134        0.3580497617528344
22.920000000000126        0.32701202880770336
22.940000000000126        0.29212226094198174
22.96000000000013         0.25969359563260647
22.98000000000013         0.2326881871783243
23.00000000000013         0.2111823003303122
23.020000000000127        0.1943587809345954
23.040000000000138        0.18134908374424125
23.060000000000144        0.17143956171441685
23.080000000000144        0.16408932894071326
23.100000000000147        0.15890644580210483
23.12000000000015         0.15562140310846695
23.14000000000015         0.15406637165799852
23.160000000000156        0.15416166764916275
23.180000000000152        0.15590921276137557
23.200000000000156        0.1593926337393648
23.220000000000166        0.16478296895449768
23.24000000000016         0.17235613221811752
23.26000000000016         0.18250916615056872
23.28000000000016         0.19579042277395878
23.30000000000017         0.2129232589462557
23.320000000000174        0.23478805518973675
23.340000000000163        0.2622137735660867
23.36000000000017         0.29512686665690213
23.380000000000173        0.330532861430718
23.400000000000166        0.361971287872191
23.42000000000017         0.3847581151714374
23.44000000000017         0.3969415603223136
23.460000000000164        0.40053662930575534
23.48000000000017         0.3970789125040409
23.500000000000178        0.3850297658149615
23.520000000000184        0.36236870061938253
23.54000000000019         0.3310409885999868
23.56000000000019         0.2957310553131435
23.58000000000019         0.26290919830348947
23.60000000000019         0.23557767824369394
23.6200000000002          0.21381346765244558
23.640000000000196        0.19678917381551833
23.6600000000002          0.18362545939781372
23.680000000000213        0.17359994118825864
23.70000000000021         0.1661652952961011
23.72000000000021         0.16092491599976086
23.74000000000021         0.15760600707414446
23.760000000000208        0.15603883358915566
23.780000000000207        0.15614235477903696
23.80000000000021         0.15791899190498673
23.820000000000213        0.1614535681127518
23.84000000000023         0.1669204984322379
23.860000000000216        0.17459774305741121
23.880000000000223        0.18488824969791856
23.900000000000222        0.19834760408781874
23.920000000000222        0.2157087313363582
23.940000000000232        0.2378636412238874
23.960000000000235        0.26565220197789485
23.98000000000023         0.29900010449314185
24.000000000000234        0.33487447440997575
24.020000000000227        0.36673090583612106
24.040000000000223        0.38986653177134495
24.060000000000223        0.40217255267917823
24.08000000000023         0.40581889362811907
24.100000000000225        0.4023185298481205
24.120000000000232        0.3901128090492436
24.14000000000024         0.3671557332331492
24.160000000000245        0.3354186603890446
24.180000000000245        0.2996484749680431
24.200000000000255        0.2663999669192633
24.22000000000026         0.23871431338192303
24.240000000000254        0.21666942056351024
24.26000000000026         0.19942686666679113
24.280000000000264        0.18609555964065905
24.300000000000278        0.17594504729141666
24.320000000000267        0.16841754277261733
24.340000000000266        0.1631134411812368
24.36000000000027         0.15975650801647234
24.380000000000273        0.15817463549583355
24.400000000000272        0.15828620002393207
24.42000000000027         0.1600933929490873
24.440000000000264        0.1636823215875308
24.46000000000029         0.16922992011759375
24.48000000000028         0.17701808205680453
24.50000000000028         0.18745541547082206
24.520000000000284        0.201105311086937
24.540000000000287        0.21871099090940815
24.56000000000029         0.2411769641899379
24.58000000000029         0.2693094109872598
24.60000000000029         0.30310762223583426
24.620000000000292        0.33955166421538646
24.640000000000292        0.371948187820657
24.660000000000288        0.39531819893715314
24.680000000000287        0.40780244097390816
24.700000000000294        0.41150491034063075
24.720000000000294        0.40795923068419826
24.74000000000029         0.3955854041820997
24.760000000000296        0.37231003664524004
24.780000000000307        0.34013254400024295
24.80000000000031         0.3038670584045228
24.82000000000031         0.27015931583148955
24.840000000000312        0.24209233045583053
24.860000000000316        0.21974072854908688
24.88000000000032         0.20226792575059477
24.90000000000032         0.1887571962745599
24.92000000000032         0.17846875087155967
24.94000000000033         0.17084141277946102
24.960000000000328        0.16546854413810316
24.98000000000033         0.16207033327259204
25.000000000000327        0.16047234359975443
25.020000000000344        0.16059182792870513
25.040000000000333        0.16243108444561008
25.060000000000336        0.16607756418842323
25.080000000000336        0.17171087371275512
25.100000000000342        0.1796171148068508
25.120000000000342        0.19021263047088643
25.14000000000034         0.20406475453844858
25.16000000000034         0.2219266499762869
25.18000000000035         0.2447108084582528
25.200000000000347        0.27327705235821853
25.220000000000343        0.30757420222163734
25.240000000000343        0.3445576977738987
25.260000000000346        0.37743683388494886
25.280000000000342        0.40115797241122475
25.300000000000338        0.41383318165946426
25.320000000000338        0.4175958150655208
25.340000000000334        0.41400151375594285
25.36000000000034         0.4014474504945357
25.380000000000347        0.3778310338171827
25.40000000000035         0.3451861551125346
25.420000000000368        0.3083226362706723
25.440000000000364        0.27414014437129475
25.46000000000037         0.24569261089273844
25.480000000000373        0.22303547813191235
25.500000000000377        0.20531064142786679
25.520000000000376        0.19160643125755064
25.54000000000038         0.1811719470620814
25.56000000000039         0.17343759240845952
25.580000000000382        0.16799073528986183
25.60000000000038         0.16454766865247186
25.62000000000039         0.1629316644554737
25.640000000000384        0.16305884338854057
25.660000000000387        0.1649315775850625
25.680000000000398        0.16863940100911246
25.700000000000394        0.17436377577764853
25.7200000000004          0.18239558247928922
25.740000000000396        0.19315565716730645
25.7600000000004          0.2072236577621436
25.780000000000403        0.22536289058836534
25.800000000000406        0.24849991994256623
25.82000000000041         0.2775079727697528
25.840000000000412        0.3123358178026389
25.860000000000404        0.3498934564338652
25.880000000000397        0.3832865891688021
25.900000000000404        0.4073818462393771
25.920000000000393        0.4202606468032576
25.940000000000385        0.42408725390016727
25.9600000000004          0.4204415723694615
25.9800000000004          0.4077408036041394
26.00000000000041         0.38381278879058855
26.020000000000408        0.350566571195873
26.040000000000422        0.3131368569428379
26.06000000000042         0.27843071576653877
26.08000000000043         0.24954838832482398
26.100000000000428        0.22654586791500808
26.120000000000427        0.20855184373922464
26.140000000000434        0.19464075885402715
26.160000000000434        0.1840500446726144
26.180000000000454        0.1762010875017327
26.200000000000443        0.17067474834733798
26.220000000000443        0.1671825328457554
26.240000000000443        0.16554621270018646
26.260000000000446        0.16568020745407688
26.280000000000445        0.16758708855674953
26.30000000000045         0.17135717687872717
26.320000000000448        0.1771758624345682
26.34000000000046         0.18533834856598286
26.360000000000458        0.1962722645694168
26.380000000000457        0.21056661093887705
26.400000000000457        0.22899693199673268
26.420000000000456        0.2525046339407827
26.440000000000456        0.28197726206687823
26.460000000000463        0.31736365456301274
26.48000000000046         0.35552586636437816
26.50000000000046         0.3893614290336549
26.520000000000454        0.4139033571136948
26.540000000000457        0.42704222582195256
26.560000000000457        0.4309365418368884
26.580000000000457        0.42723522706708034
26.60000000000045         0.41433103763414425
26.62000000000046         0.390018971911489
26.640000000000462        0.3562400222371613
26.660000000000476        0.31821322601149077
26.680000000000483        0.28295518047751306
26.70000000000048         0.2536145319712711
26.720000000000482        0.23024772415913305
26.740000000000485        0.21196939498801395
26.76000000000049         0.19783756840175562
26.78000000000049         0.1870813647654652
26.8000000000005          0.17911121805105035
26.8200000000005          0.17350075750939767
26.840000000000497        0.1699570996187545
26.860000000000497        0.16829809700928697
26.880000000000507        0.16843763559641234
26.900000000000503        0.17037856936066692
26.920000000000503        0.17421283960433376
26.940000000000506        0.18012890148906133
26.96000000000051         0.18842681983840256
26.980000000000512        0.19954128532702947
27.000000000000522        0.21407099832202445
27.02000000000051         0.23280423255945779
27.040000000000518        0.2567173140283072
27.060000000000517        0.2867032589191132
27.080000000000517        0.32269019438951463
27.100000000000517        0.3614134028860695
27.12000000000051         0.3958173903491033
27.140000000000505        0.4207720816664617
27.160000000000508        0.434136194739199
27.180000000000504        0.4381012289562173
27.20000000000051         0.434342099644912
27.220000000000514        0.4212254574348068
27.24000000000051         0.3965118315463692
27.260000000000524        0.36217569678701855
27.28000000000053         0.3235241153713368
27.30000000000054         0.287688571798208
27.32000000000054         0.25788788690413406
27.340000000000543        0.23412507589420875
27.36000000000054         0.2155439949415818
27.380000000000543        0.20118322913014258
27.40000000000055         0.1902529287326821
27.420000000000545        0.182154691717754
27.44000000000055         0.17645511227292332
27.46000000000056         0.17285628312640935
27.480000000000555        0.17117295603057767
27.500000000000558        0.17131758998073812
27.520000000000557        0.1732931298328216
27.540000000000564        0.17719316723133535
27.560000000000556        0.18320944463925287
27.58000000000057         0.1916455173717165
27.600000000000577        0.2029463821911066
27.62000000000057         0.21772062112764304
27.64000000000057         0.2367725544672875
27.660000000000572        0.2610812985793094
27.680000000000568        0.2915699130113693
27.70000000000057         0.32816146741065677
27.72000000000057         0.3675383400481795
27.740000000000563        0.4025284878578728
27.76000000000056         0.42791296690422764
27.780000000000555        0.4415124273571419
27.80000000000057         0.44555150221458784
27.820000000000558        0.4417316437618526
27.840000000000565        0.42839272774200293
27.86000000000057         0.40315725851597145
27.880000000000575        0.36833995006628323
27.90000000000058         0.3291112955143246
27.920000000000606        0.29265837638606274
27.940000000000598        0.26231136638765273
27.960000000000594        0.23815324839841237
27.980000000000597        0.21926368034326532
28.0000000000006          0.20466492445846157
28.020000000000607        0.19355382998014717
28.040000000000603        0.1853221291200439
28.060000000000606        0.17952938824179684
28.08000000000062         0.17587274453302235
28.10000000000061         0.17416369872764406
28.12000000000062         0.17431315104650338
28.14000000000062         0.17632371898050025
28.16000000000062         0.18029104512154867
28.180000000000618        0.18641003803008402
28.20000000000062         0.194991152553581
28.22000000000062         0.2064842564799296
28.24000000000063         0.22150955947815087
28.260000000000627        0.240885261280598
28.28000000000063         0.26560744930846986
28.30000000000063         0.2966152297862704
28.32000000000063         0.3338310962660896
28.340000000000625        0.37388333929483536
28.36000000000062         0.409479980113644
28.380000000000614        0.43530977791949554
28.40000000000061         0.4491535866677973
28.42000000000062         0.4532694466300539
28.440000000000616        0.4493851093050648
28.46000000000063         0.43576595249470007
28.480000000000626        0.41014379752491487
28.500000000000632        0.3747272361866287
28.520000000000643        0.33482799275256875
28.540000000000646        0.2977547488697382
28.56000000000066         0.2668929269733715
28.58000000000066         0.242326166448594
28.60000000000066         0.22311786041368595
28.62000000000066         0.20827327200087017
28.640000000000665        0.19697538814254492
28.660000000000668        0.1886055125618771
28.680000000000668        0.1827166213899647
28.700000000000678        0.17899905591282875
28.72000000000067         0.17726239027720284
28.74000000000067         0.17741587543155943
28.760000000000673        0.17946240026363208
28.78000000000068         0.1834987447440014
28.80000000000068         0.18972330859400482
28.820000000000675        0.19845193604240613
28.84000000000068         0.21014231609102133
28.860000000000685        0.22542548325932077
28.88000000000069         0.24513398069970505
28.900000000000684        0.2702812803717309
28.920000000000684        0.3018227828821164
28.940000000000683        0.3396805655404802
28.960000000000683        0.38043195983964273
28.980000000000675        0.4167541236921926
29.00000000000067         0.4429874188960345
29.02000000000066         0.45703440598131184
29.040000000000667        0.461228081540554
29.060000000000674        0.4572767355385741
29.08000000000067         0.4434165105920228
29.100000000000676        0.41734442018630574
29.120000000000687        0.38130977302238567
29.140000000000693        0.34072018316865654
29.160000000000704        0.3030087015669568
29.180000000000714        0.2716170573068791
29.200000000000717        0.24662981245489213
29.220000000000713        0.22709444438524654
29.240000000000713        0.21199847957113907
29.26000000000072         0.20050859589785563
29.28000000000072         0.19199637478007972
29.30000000000072         0.1860065706690465
29.32000000000072         0.18222625759209962
29.340000000000735        0.18046071219904034
29.360000000000728        0.18061774440573936
29.380000000000724        0.18270029641086347
29.40000000000073         0.18680676004048
29.42000000000074         0.19313895879560616
29.440000000000733        0.20201822284653245
29.46000000000074         0.2139102254619209
29.480000000000743        0.229457042464811
29.50000000000075         0.24950081305702795
29.520000000000742        0.2750665076646142
29.54000000000074         0.3071222188001495
29.560000000000745        0.345617101429326
29.580000000000744        0.38715061127774114
29.600000000000733        0.42411709173041195
29.620000000000726        0.4508233789234206
29.640000000000718        0.4651305209453595
29.660000000000725        0.4694054735676964
29.680000000000728        0.4653841469579652
29.700000000000728        0.45127399407695606
29.720000000000734        0.4247379775213566
29.740000000000745        0.38806790574962563
29.760000000000748        0.34677075517826383
29.78000000000076         0.30835402003424167
29.80000000000078         0.27645104233699513
29.82000000000077         0.2510487433814017
29.840000000000767        0.2311824184927366
29.86000000000077         0.21582785683862118
29.880000000000777        0.20414171088712424
29.900000000000777        0.195484418887658
29.92000000000078         0.18939273823786865
29.94000000000078         0.18554826005418823
29.960000000000793        0.18375291235877006
29.980000000000786        0.18391306370987165
30.00000000000079         0.1860318375765635
30.02000000000078         0.19020935082910853
30.040000000000788        0.19665210092145285
30.06000000000079         0.2056850392062745
30.080000000000794        0.21778235628702988
30.100000000000797        0.23359616465639743
30.1200000000008          0.25398528782678453
30.140000000000796        0.27999270891728356
30.160000000000796        0.3126029932981857
30.180000000000792        0.35176612815180813
30.200000000000784        0.3940277835228808
30.220000000000784        0.43165514002804933
30.240000000000776        0.4588480609938612
30.260000000000776        0.4734241621289108
30.280000000000776        0.47778315668612015
30.300000000000782        0.47368845547073996
30.32000000000079         0.45937103230461707
30.340000000000792        0.4324148778861904
30.3600000000008          0.394987422400494
30.38000000000081         0.35289130432794913
30.400000000000816        0.3138802219768248
30.42000000000082         0.28142496226450886
30.440000000000833        0.25558334417877093
30.46000000000082         0.23537400524236757
30.480000000000828        0.2197552457306893
30.500000000000835        0.20786880567567056
30.520000000000838        0.19906355322165362
30.540000000000838        0.19286796100332382
30.560000000000834        0.18895800153494322
30.58000000000085         0.1871321131083169
30.600000000000847        0.18729513209997228
30.620000000000836        0.18945037287345967
30.640000000000843        0.1936996919108963
30.660000000000842        0.2002519750899861
30.68000000000085         0.20943968436378563
30.700000000000845        0.22174441767993505
30.72000000000085         0.23782955955754545
30.740000000000858        0.2585687576663551
30.760000000000858        0.2850229954091547
30.780000000000854        0.3181942534829773
30.800000000000853        0.3580339471863973
30.82000000000085         0.40103535916769983
30.840000000000835        0.43933878525708897
30.860000000000838        0.46698061445104866
30.88000000000083         0.4818870326515256
30.90000000000083         0.4863330548171238
30.920000000000837        0.4821588133216242
30.94000000000084         0.4675670500861147
30.960000000000846        0.4401161291906522
30.98000000000086         0.4020185093464238
31.000000000000867        0.3591892697085435
31.02000000000087         0.3195074639443379
31.040000000000877        0.28649576665810295
31.06000000000089         0.26021098085101607
31.080000000000894        0.239654790455885
31.10000000000088         0.22376803809394932
31.12000000000089         0.2116782167770575
31.14000000000089         0.20272157717072453
31.160000000000895        0.196421103412811
31.180000000000895        0.1924450754315957
31.20000000000089         0.1905883705960868
31.2200000000009          0.19075405186752187
31.240000000000904        0.19294541689317196
31.260000000000897        0.19726619204546664
31.280000000000904        0.2039288556636673
31.300000000000903        0.21327156428585836
31.320000000000917        0.22578408583178278
31.34000000000091         0.2421409805501322
31.360000000000923        0.26323057263562805
31.38000000000091         0.2901317328935737
31.4000000000009          0.3238638060829042
31.420000000000897        0.364454581197286
31.440000000000904        0.40812429811072587
31.46000000000089         0.4470121585929195
31.48000000000091         0.47528319788826695
31.500000000000902        0.4904870451023574
31.520000000000902        0.4950287598517923
31.5400000000009          0.49077379430617535
31.5600000000009          0.4759001410901691
31.580000000000894        0.4479426717338289
31.600000000000904        0.40916288039010607
31.620000000000925        0.3655921774320628
31.64000000000094         0.325233915466142
31.660000000000938        0.2916612713060886
31.680000000000938        0.2649347603494095
31.700000000000944        0.24402284529251445
31.72000000000094         0.2278639214044072
31.74000000000094         0.21556794762691706
31.760000000000932        0.20646054022400637
31.780000000000953        0.2000530596234544
31.800000000000953        0.19600955420025276
31.820000000000952        0.1941211064547807
31.840000000000952        0.19428897277781804
31.86000000000096         0.1965164133782666
31.880000000000955        0.2009088384393507
31.900000000000954        0.20768224898418958
31.920000000000968        0.21718043139454415
31.940000000000968        0.22990130153761948
31.960000000000974        0.24652990699071375
31.98000000000098         0.26797640322740685
32.00000000000096         0.29534175779142063
32.02000000000096         0.3296677657394985
32.04000000000096         0.37088314459789545
32.060000000000954        0.4153029249151939
32.08000000000094         0.45489549583059335
32.10000000000094         0.4837035205407775
32.12000000000095         0.49922031003172174
32.14000000000093         0.5038610524129513
32.16000000000093         0.4995116636810839
32.18000000000094         0.48432914047610126
32.20000000000094         0.4558388910317608
32.22000000000096         0.41635867988746045
32.24000000000096         0.3721232426592175
32.26000000000098         0.3310762096072891
32.28000000000097         0.2969171014099175
32.30000000000098         0.26972698272350215
32.32000000000098         0.24846851918036783
32.340000000000984        0.2320409177074264
32.36000000000099         0.219539691307077
32.38000000000098         0.21027965608023877
32.40000000000098         0.2037646374679341
32.42000000000099         0.19965326376035167
32.440000000000985        0.19773283849245107
32.460000000000996        0.1979026587526661
32.480000000000985        0.2001658444643364
32.500000000001           0.20462861490231304
32.52000000000099         0.21151153291453517
32.540000000001           0.2211635409959295
32.560000000001           0.23409086703183446
32.580000000001014        0.2509912773271295
32.600000000001           0.27278494732716885
32.620000000001           0.3005918048429286
32.640000000000995        0.3354701183981982
32.660000000001           0.3773527942404802
32.68000000000099         0.4225194897443124
32.700000000000976        0.4628339511939736
32.720000000000965        0.49220465610697534
32.740000000000975        0.5080621534095947
32.76000000000096         0.5128163421636188
32.78000000000096         0.5083691261669142
32.80000000000098         0.49280882455126707
32.820000000000974        0.4637115357105407
32.84000000000098         0.4236301892617515
32.86000000000099         0.3786544354565359
32.880000000001           0.33694182191153105
32.900000000001           0.3022321134466164
32.920000000001004        0.2746026745462578
32.94000000000101         0.2529996997174698
32.96000000000101         0.23630522365657422
32.98000000000103         0.22360037501804284
33.00000000000101         0.21418888940429295
33.02000000000101         0.20756664099653419
33.04000000000102         0.20338711660638695
33.060000000001025        0.20143461165820145
33.080000000001036        0.20160598853383976
33.100000000001025        0.2039045648174505
33.12000000000102         0.20843887653757331
33.140000000001024        0.21543179769152515
33.16000000000103         0.22523826826991744
33.180000000001016        0.23837259532948502
33.200000000001026        0.2555436050731717
33.220000000001036        0.2776858843198484
33.240000000001025        0.30593665303199785
33.26000000000103         0.34137076279870876
33.28000000000102         0.3839251483685963
33.30000000000102         0.4298442359046816
33.32000000000101         0.47088611635232364
33.340000000001005        0.500878669089781
33.360000000001           0.5170243600042195
33.380000000001           0.5218892145198316
33.40000000000099         0.5173385847736169
33.420000000001004        0.5014440073252986
33.44000000000102         0.4717873399101558
33.460000000001024        0.43098537604904524
33.48000000000103         0.3852635883190318
33.50000000000103         0.34288564485950496
33.52000000000103         0.30762651478522157
33.540000000001044        0.279559092452322
33.56000000000105         0.2576129403966621
33.58000000000106         0.24065287323970488
33.600000000001046        0.22774750883667388
33.62000000000105         0.21818512032931656
33.64000000000105         0.2114558257011081
33.66000000000105         0.20720752252113675
33.680000000001066        0.20522103249393667
33.70000000000106         0.20539245901016553
33.72000000000107         0.20772465140415108
33.74000000000107         0.2123276502570118
33.76000000000106         0.21942772315455078
33.78000000000107         0.22938538570395625
33.800000000001056        0.24272308473063497
33.82000000000106         0.26016083924214517
33.84000000000107         0.2826478688451611
33.86000000000107         0.3113389664497775
33.88000000000106         0.34726933494534057
33.90000000000107         0.39047088541120695
33.92000000000105         0.4372180997273174
33.94000000000104         0.4790965533918431
33.960000000001024        0.5095403369888549
33.98000000000103         0.5260227636772278
34.00000000000102         0.5309950934617499
34.02000000000103         0.5263376617844887
34.04000000000104         0.5101053885689988
34.06000000000104         0.47988761246421313
34.080000000001064        0.4383657287668147
34.10000000000106         0.3919019566947078
34.12000000000108         0.34886430152272124
34.14000000000107         0.313061463064826
34.160000000001084        0.2845559531317603
34.18000000000107         0.2622772629371398
34.20000000000108         0.24505663071376804
34.2200000000011          0.2319494710191636
34.24000000000109         0.2222384088273725
34.260000000001085        0.21540324786141532
34.280000000001095        0.2110861026125871
34.300000000001084        0.20906409133989978
34.32000000000109         0.20923158404605074
34.340000000001105        0.2115916015435627
34.360000000001094        0.21625590779205522
34.38000000000109         0.22345405024568268
34.40000000000111         0.23355185050922944
34.4200000000011          0.24708167643273332
34.4400000000011          0.264768968764717
34.4600000000011          0.28757586696640175
34.48000000000109         0.31666751095516393
34.50000000000111         0.3531465682717473
34.52000000000109         0.39698877526745724
34.54000000000109         0.44446052403474123
34.56000000000108         0.48704722143197415
34.580000000001085        0.5180458719351505
34.60000000000108         0.5348640573883853
34.62000000000107         0.5399454118366268
34.640000000001066        0.5351843103700511
34.66000000000108         0.5186215686846221
34.68000000000107         0.4878560849568587
34.70000000000108         0.4456311480936575
34.72000000000111         0.3983689546864185
34.740000000001096        0.3547166445924079
34.76000000000111         0.3184245008489034
34.78000000000112         0.28952607054360235
34.80000000000111         0.26692273365967034
34.82000000000111         0.24945125279151698
34.840000000001126        0.23615260271660346
34.860000000001136        0.22629827855019166
34.88000000000112         0.21935989114853832
34.90000000000112         0.21497380220004994
34.920000000001124        0.21291339823335392
34.94000000000113         0.21307106065533807